# vtk DataFile Version 3.0
LBM Simulation Data (speed_m_per_s) [FIXED_SCALING_v11]
ASCII
DATASET STRUCTURED_GRID
DIMENSIONS 30 30 30
POINTS 27000 float
0 0 0
1 0 0
2 0 0
3 0 0
4 0 0
5 0 0
6 0 0
7 0 0
8 0 0
9 0 0
10 0 0
11 0 0
12 0 0
13 0 0
14 0 0
15 0 0
16 0 0
17 0 0
18 0 0
19 0 0
20 0 0
21 0 0
22 0 0
23 0 0
24 0 0
25 0 0
26 0 0
27 0 0
28 0 0
29 0 0
0 1 0
1 1 0
2 1 0
3 1 0
4 1 0
5 1 0
6 1 0
7 1 0
8 1 0
9 1 0
10 1 0
11 1 0
12 1 0
13 1 0
14 1 0
15 1 0
16 1 0
17 1 0
18 1 0
19 1 0
20 1 0
21 1 0
22 1 0
23 1 0
24 1 0
25 1 0
26 1 0
27 1 0
28 1 0
29 1 0
0 2 0
1 2 0
2 2 0
3 2 0
4 2 0
5 2 0
6 2 0
7 2 0
8 2 0
9 2 0
10 2 0
11 2 0
12 2 0
13 2 0
14 2 0
15 2 0
16 2 0
17 2 0
18 2 0
19 2 0
20 2 0
21 2 0
22 2 0
23 2 0
24 2 0
25 2 0
26 2 0
27 2 0
28 2 0
29 2 0
0 3 0
1 3 0
2 3 0
3 3 0
4 3 0
5 3 0
6 3 0
7 3 0
8 3 0
9 3 0
10 3 0
11 3 0
12 3 0
13 3 0
14 3 0
15 3 0
16 3 0
17 3 0
18 3 0
19 3 0
20 3 0
21 3 0
22 3 0
23 3 0
24 3 0
25 3 0
26 3 0
27 3 0
28 3 0
29 3 0
0 4 0
1 4 0
2 4 0
3 4 0
4 4 0
5 4 0
6 4 0
7 4 0
8 4 0
9 4 0
10 4 0
11 4 0
12 4 0
13 4 0
14 4 0
15 4 0
16 4 0
17 4 0
18 4 0
19 4 0
20 4 0
21 4 0
22 4 0
23 4 0
24 4 0
25 4 0
26 4 0
27 4 0
28 4 0
29 4 0
0 5 0
1 5 0
2 5 0
3 5 0
4 5 0
5 5 0
6 5 0
7 5 0
8 5 0
9 5 0
10 5 0
11 5 0
12 5 0
13 5 0
14 5 0
15 5 0
16 5 0
17 5 0
18 5 0
19 5 0
20 5 0
21 5 0
22 5 0
23 5 0
24 5 0
25 5 0
26 5 0
27 5 0
28 5 0
29 5 0
0 6 0
1 6 0
2 6 0
3 6 0
4 6 0
5 6 0
6 6 0
7 6 0
8 6 0
9 6 0
10 6 0
11 6 0
12 6 0
13 6 0
14 6 0
15 6 0
16 6 0
17 6 0
18 6 0
19 6 0
20 6 0
21 6 0
22 6 0
23 6 0
24 6 0
25 6 0
26 6 0
27 6 0
28 6 0
29 6 0
0 7 0
1 7 0
2 7 0
3 7 0
4 7 0
5 7 0
6 7 0
7 7 0
8 7 0
9 7 0
10 7 0
11 7 0
12 7 0
13 7 0
14 7 0
15 7 0
16 7 0
17 7 0
18 7 0
19 7 0
20 7 0
21 7 0
22 7 0
23 7 0
24 7 0
25 7 0
26 7 0
27 7 0
28 7 0
29 7 0
0 8 0
1 8 0
2 8 0
3 8 0
4 8 0
5 8 0
6 8 0
7 8 0
8 8 0
9 8 0
10 8 0
11 8 0
12 8 0
13 8 0
14 8 0
15 8 0
16 8 0
17 8 0
18 8 0
19 8 0
20 8 0
21 8 0
22 8 0
23 8 0
24 8 0
25 8 0
26 8 0
27 8 0
28 8 0
29 8 0
0 9 0
1 9 0
2 9 0
3 9 0
4 9 0
5 9 0
6 9 0
7 9 0
8 9 0
9 9 0
10 9 0
11 9 0
12 9 0
13 9 0
14 9 0
15 9 0
16 9 0
17 9 0
18 9 0
19 9 0
20 9 0
21 9 0
22 9 0
23 9 0
24 9 0
25 9 0
26 9 0
27 9 0
28 9 0
29 9 0
0 10 0
1 10 0
2 10 0
3 10 0
4 10 0
5 10 0
6 10 0
7 10 0
8 10 0
9 10 0
10 10 0
11 10 0
12 10 0
13 10 0
14 10 0
15 10 0
16 10 0
17 10 0
18 10 0
19 10 0
20 10 0
21 10 0
22 10 0
23 10 0
24 10 0
25 10 0
26 10 0
27 10 0
28 10 0
29 10 0
0 11 0
1 11 0
2 11 0
3 11 0
4 11 0
5 11 0
6 11 0
7 11 0
8 11 0
9 11 0
10 11 0
11 11 0
12 11 0
13 11 0
14 11 0
15 11 0
16 11 0
17 11 0
18 11 0
19 11 0
20 11 0
21 11 0
22 11 0
23 11 0
24 11 0
25 11 0
26 11 0
27 11 0
28 11 0
29 11 0
0 12 0
1 12 0
2 12 0
3 12 0
4 12 0
5 12 0
6 12 0
7 12 0
8 12 0
9 12 0
10 12 0
11 12 0
12 12 0
13 12 0
14 12 0
15 12 0
16 12 0
17 12 0
18 12 0
19 12 0
20 12 0
21 12 0
22 12 0
23 12 0
24 12 0
25 12 0
26 12 0
27 12 0
28 12 0
29 12 0
0 13 0
1 13 0
2 13 0
3 13 0
4 13 0
5 13 0
6 13 0
7 13 0
8 13 0
9 13 0
10 13 0
11 13 0
12 13 0
13 13 0
14 13 0
15 13 0
16 13 0
17 13 0
18 13 0
19 13 0
20 13 0
21 13 0
22 13 0
23 13 0
24 13 0
25 13 0
26 13 0
27 13 0
28 13 0
29 13 0
0 14 0
1 14 0
2 14 0
3 14 0
4 14 0
5 14 0
6 14 0
7 14 0
8 14 0
9 14 0
10 14 0
11 14 0
12 14 0
13 14 0
14 14 0
15 14 0
16 14 0
17 14 0
18 14 0
19 14 0
20 14 0
21 14 0
22 14 0
23 14 0
24 14 0
25 14 0
26 14 0
27 14 0
28 14 0
29 14 0
0 15 0
1 15 0
2 15 0
3 15 0
4 15 0
5 15 0
6 15 0
7 15 0
8 15 0
9 15 0
10 15 0
11 15 0
12 15 0
13 15 0
14 15 0
15 15 0
16 15 0
17 15 0
18 15 0
19 15 0
20 15 0
21 15 0
22 15 0
23 15 0
24 15 0
25 15 0
26 15 0
27 15 0
28 15 0
29 15 0
0 16 0
1 16 0
2 16 0
3 16 0
4 16 0
5 16 0
6 16 0
7 16 0
8 16 0
9 16 0
10 16 0
11 16 0
12 16 0
13 16 0
14 16 0
15 16 0
16 16 0
17 16 0
18 16 0
19 16 0
20 16 0
21 16 0
22 16 0
23 16 0
24 16 0
25 16 0
26 16 0
27 16 0
28 16 0
29 16 0
0 17 0
1 17 0
2 17 0
3 17 0
4 17 0
5 17 0
6 17 0
7 17 0
8 17 0
9 17 0
10 17 0
11 17 0
12 17 0
13 17 0
14 17 0
15 17 0
16 17 0
17 17 0
18 17 0
19 17 0
20 17 0
21 17 0
22 17 0
23 17 0
24 17 0
25 17 0
26 17 0
27 17 0
28 17 0
29 17 0
0 18 0
1 18 0
2 18 0
3 18 0
4 18 0
5 18 0
6 18 0
7 18 0
8 18 0
9 18 0
10 18 0
11 18 0
12 18 0
13 18 0
14 18 0
15 18 0
16 18 0
17 18 0
18 18 0
19 18 0
20 18 0
21 18 0
22 18 0
23 18 0
24 18 0
25 18 0
26 18 0
27 18 0
28 18 0
29 18 0
0 19 0
1 19 0
2 19 0
3 19 0
4 19 0
5 19 0
6 19 0
7 19 0
8 19 0
9 19 0
10 19 0
11 19 0
12 19 0
13 19 0
14 19 0
15 19 0
16 19 0
17 19 0
18 19 0
19 19 0
20 19 0
21 19 0
22 19 0
23 19 0
24 19 0
25 19 0
26 19 0
27 19 0
28 19 0
29 19 0
0 20 0
1 20 0
2 20 0
3 20 0
4 20 0
5 20 0
6 20 0
7 20 0
8 20 0
9 20 0
10 20 0
11 20 0
12 20 0
13 20 0
14 20 0
15 20 0
16 20 0
17 20 0
18 20 0
19 20 0
20 20 0
21 20 0
22 20 0
23 20 0
24 20 0
25 20 0
26 20 0
27 20 0
28 20 0
29 20 0
0 21 0
1 21 0
2 21 0
3 21 0
4 21 0
5 21 0
6 21 0
7 21 0
8 21 0
9 21 0
10 21 0
11 21 0
12 21 0
13 21 0
14 21 0
15 21 0
16 21 0
17 21 0
18 21 0
19 21 0
20 21 0
21 21 0
22 21 0
23 21 0
24 21 0
25 21 0
26 21 0
27 21 0
28 21 0
29 21 0
0 22 0
1 22 0
2 22 0
3 22 0
4 22 0
5 22 0
6 22 0
7 22 0
8 22 0
9 22 0
10 22 0
11 22 0
12 22 0
13 22 0
14 22 0
15 22 0
16 22 0
17 22 0
18 22 0
19 22 0
20 22 0
21 22 0
22 22 0
23 22 0
24 22 0
25 22 0
26 22 0
27 22 0
28 22 0
29 22 0
0 23 0
1 23 0
2 23 0
3 23 0
4 23 0
5 23 0
6 23 0
7 23 0
8 23 0
9 23 0
10 23 0
11 23 0
12 23 0
13 23 0
14 23 0
15 23 0
16 23 0
17 23 0
18 23 0
19 23 0
20 23 0
21 23 0
22 23 0
23 23 0
24 23 0
25 23 0
26 23 0
27 23 0
28 23 0
29 23 0
0 24 0
1 24 0
2 24 0
3 24 0
4 24 0
5 24 0
6 24 0
7 24 0
8 24 0
9 24 0
10 24 0
11 24 0
12 24 0
13 24 0
14 24 0
15 24 0
16 24 0
17 24 0
18 24 0
19 24 0
20 24 0
21 24 0
22 24 0
23 24 0
24 24 0
25 24 0
26 24 0
27 24 0
28 24 0
29 24 0
0 25 0
1 25 0
2 25 0
3 25 0
4 25 0
5 25 0
6 25 0
7 25 0
8 25 0
9 25 0
10 25 0
11 25 0
12 25 0
13 25 0
14 25 0
15 25 0
16 25 0
17 25 0
18 25 0
19 25 0
20 25 0
21 25 0
22 25 0
23 25 0
24 25 0
25 25 0
26 25 0
27 25 0
28 25 0
29 25 0
0 26 0
1 26 0
2 26 0
3 26 0
4 26 0
5 26 0
6 26 0
7 26 0
8 26 0
9 26 0
10 26 0
11 26 0
12 26 0
13 26 0
14 26 0
15 26 0
16 26 0
17 26 0
18 26 0
19 26 0
20 26 0
21 26 0
22 26 0
23 26 0
24 26 0
25 26 0
26 26 0
27 26 0
28 26 0
29 26 0
0 27 0
1 27 0
2 27 0
3 27 0
4 27 0
5 27 0
6 27 0
7 27 0
8 27 0
9 27 0
10 27 0
11 27 0
12 27 0
13 27 0
14 27 0
15 27 0
16 27 0
17 27 0
18 27 0
19 27 0
20 27 0
21 27 0
22 27 0
23 27 0
24 27 0
25 27 0
26 27 0
27 27 0
28 27 0
29 27 0
0 28 0
1 28 0
2 28 0
3 28 0
4 28 0
5 28 0
6 28 0
7 28 0
8 28 0
9 28 0
10 28 0
11 28 0
12 28 0
13 28 0
14 28 0
15 28 0
16 28 0
17 28 0
18 28 0
19 28 0
20 28 0
21 28 0
22 28 0
23 28 0
24 28 0
25 28 0
26 28 0
27 28 0
28 28 0
29 28 0
0 29 0
1 29 0
2 29 0
3 29 0
4 29 0
5 29 0
6 29 0
7 29 0
8 29 0
9 29 0
10 29 0
11 29 0
12 29 0
13 29 0
14 29 0
15 29 0
16 29 0
17 29 0
18 29 0
19 29 0
20 29 0
21 29 0
22 29 0
23 29 0
24 29 0
25 29 0
26 29 0
27 29 0
28 29 0
29 29 0
0 0 1
1 0 1
2 0 1
3 0 1
4 0 1
5 0 1
6 0 1
7 0 1
8 0 1
9 0 1
10 0 1
11 0 1
12 0 1
13 0 1
14 0 1
15 0 1
16 0 1
17 0 1
18 0 1
19 0 1
20 0 1
21 0 1
22 0 1
23 0 1
24 0 1
25 0 1
26 0 1
27 0 1
28 0 1
29 0 1
0 1 1
1 1 1
2 1 1
3 1 1
4 1 1
5 1 1
6 1 1
7 1 1
8 1 1
9 1 1
10 1 1
11 1 1
12 1 1
13 1 1
14 1 1
15 1 1
16 1 1
17 1 1
18 1 1
19 1 1
20 1 1
21 1 1
22 1 1
23 1 1
24 1 1
25 1 1
26 1 1
27 1 1
28 1 1
29 1 1
0 2 1
1 2 1
2 2 1
3 2 1
4 2 1
5 2 1
6 2 1
7 2 1
8 2 1
9 2 1
10 2 1
11 2 1
12 2 1
13 2 1
14 2 1
15 2 1
16 2 1
17 2 1
18 2 1
19 2 1
20 2 1
21 2 1
22 2 1
23 2 1
24 2 1
25 2 1
26 2 1
27 2 1
28 2 1
29 2 1
0 3 1
1 3 1
2 3 1
3 3 1
4 3 1
5 3 1
6 3 1
7 3 1
8 3 1
9 3 1
10 3 1
11 3 1
12 3 1
13 3 1
14 3 1
15 3 1
16 3 1
17 3 1
18 3 1
19 3 1
20 3 1
21 3 1
22 3 1
23 3 1
24 3 1
25 3 1
26 3 1
27 3 1
28 3 1
29 3 1
0 4 1
1 4 1
2 4 1
3 4 1
4 4 1
5 4 1
6 4 1
7 4 1
8 4 1
9 4 1
10 4 1
11 4 1
12 4 1
13 4 1
14 4 1
15 4 1
16 4 1
17 4 1
18 4 1
19 4 1
20 4 1
21 4 1
22 4 1
23 4 1
24 4 1
25 4 1
26 4 1
27 4 1
28 4 1
29 4 1
0 5 1
1 5 1
2 5 1
3 5 1
4 5 1
5 5 1
6 5 1
7 5 1
8 5 1
9 5 1
10 5 1
11 5 1
12 5 1
13 5 1
14 5 1
15 5 1
16 5 1
17 5 1
18 5 1
19 5 1
20 5 1
21 5 1
22 5 1
23 5 1
24 5 1
25 5 1
26 5 1
27 5 1
28 5 1
29 5 1
0 6 1
1 6 1
2 6 1
3 6 1
4 6 1
5 6 1
6 6 1
7 6 1
8 6 1
9 6 1
10 6 1
11 6 1
12 6 1
13 6 1
14 6 1
15 6 1
16 6 1
17 6 1
18 6 1
19 6 1
20 6 1
21 6 1
22 6 1
23 6 1
24 6 1
25 6 1
26 6 1
27 6 1
28 6 1
29 6 1
0 7 1
1 7 1
2 7 1
3 7 1
4 7 1
5 7 1
6 7 1
7 7 1
8 7 1
9 7 1
10 7 1
11 7 1
12 7 1
13 7 1
14 7 1
15 7 1
16 7 1
17 7 1
18 7 1
19 7 1
20 7 1
21 7 1
22 7 1
23 7 1
24 7 1
25 7 1
26 7 1
27 7 1
28 7 1
29 7 1
0 8 1
1 8 1
2 8 1
3 8 1
4 8 1
5 8 1
6 8 1
7 8 1
8 8 1
9 8 1
10 8 1
11 8 1
12 8 1
13 8 1
14 8 1
15 8 1
16 8 1
17 8 1
18 8 1
19 8 1
20 8 1
21 8 1
22 8 1
23 8 1
24 8 1
25 8 1
26 8 1
27 8 1
28 8 1
29 8 1
0 9 1
1 9 1
2 9 1
3 9 1
4 9 1
5 9 1
6 9 1
7 9 1
8 9 1
9 9 1
10 9 1
11 9 1
12 9 1
13 9 1
14 9 1
15 9 1
16 9 1
17 9 1
18 9 1
19 9 1
20 9 1
21 9 1
22 9 1
23 9 1
24 9 1
25 9 1
26 9 1
27 9 1
28 9 1
29 9 1
0 10 1
1 10 1
2 10 1
3 10 1
4 10 1
5 10 1
6 10 1
7 10 1
8 10 1
9 10 1
10 10 1
11 10 1
12 10 1
13 10 1
14 10 1
15 10 1
16 10 1
17 10 1
18 10 1
19 10 1
20 10 1
21 10 1
22 10 1
23 10 1
24 10 1
25 10 1
26 10 1
27 10 1
28 10 1
29 10 1
0 11 1
1 11 1
2 11 1
3 11 1
4 11 1
5 11 1
6 11 1
7 11 1
8 11 1
9 11 1
10 11 1
11 11 1
12 11 1
13 11 1
14 11 1
15 11 1
16 11 1
17 11 1
18 11 1
19 11 1
20 11 1
21 11 1
22 11 1
23 11 1
24 11 1
25 11 1
26 11 1
27 11 1
28 11 1
29 11 1
0 12 1
1 12 1
2 12 1
3 12 1
4 12 1
5 12 1
6 12 1
7 12 1
8 12 1
9 12 1
10 12 1
11 12 1
12 12 1
13 12 1
14 12 1
15 12 1
16 12 1
17 12 1
18 12 1
19 12 1
20 12 1
21 12 1
22 12 1
23 12 1
24 12 1
25 12 1
26 12 1
27 12 1
28 12 1
29 12 1
0 13 1
1 13 1
2 13 1
3 13 1
4 13 1
5 13 1
6 13 1
7 13 1
8 13 1
9 13 1
10 13 1
11 13 1
12 13 1
13 13 1
14 13 1
15 13 1
16 13 1
17 13 1
18 13 1
19 13 1
20 13 1
21 13 1
22 13 1
23 13 1
24 13 1
25 13 1
26 13 1
27 13 1
28 13 1
29 13 1
0 14 1
1 14 1
2 14 1
3 14 1
4 14 1
5 14 1
6 14 1
7 14 1
8 14 1
9 14 1
10 14 1
11 14 1
12 14 1
13 14 1
14 14 1
15 14 1
16 14 1
17 14 1
18 14 1
19 14 1
20 14 1
21 14 1
22 14 1
23 14 1
24 14 1
25 14 1
26 14 1
27 14 1
28 14 1
29 14 1
0 15 1
1 15 1
2 15 1
3 15 1
4 15 1
5 15 1
6 15 1
7 15 1
8 15 1
9 15 1
10 15 1
11 15 1
12 15 1
[...]
POINT_DATA 27000
SCALARS speed_m_per_s float 1
LOOKUP_TABLE default
0.125000
0.000000
0.000000
0.000000
0.000000
0.000000
0.000000
0.000000
0.000000
0.000000
0.000000
0.000000
0.000000
0.000000
0.000000
0.000000
0.000000
0.000000
0.000000
0.000000
0.000000
0.000000
0.000000
0.000000
0.000000
0.000000
0.000000
0.000000
0.000000
0.000000
0.125000
0.000000
0.000000
0.000000
0.000000
0.000000
0.000000
0.000000
0.000000
0.000000
0.000000
0.000000
0.000000
0.000000
0.000000
0.000000
0.000000
0.000000
0.000000
0.000000
0.000000
0.000000
0.000000
0.000000
0.000000
0.000000
0.000000
0.000000
0.000000
0.000000
0.125000
0.000000
0.000000
0.000000
0.000000
0.000000
0.000000
0.000000
0.000000
0.000000
0.000000
0.000000
0.000000
0.000000
0.000000
0.000000
0.000000
0.000000
0.000000
0.000000
0.000000
0.000000
0.000000
0.000000
0.000000
0.000000
0.000000
0.000000
0.000000
0.000000
0.125000
0.000000
0.000000
0.000000
0.000000
0.000000
0.000000
0.000000
0.000000
0.000000
0.000000
0.000000
0.000000
0.000000
0.000000
0.000000
0.000000
0.000000
0.000000
0.000000
0.000000
0.000000
0.000000
0.000000
0.000000
0.000000
0.000000
0.000000
0.000000
0.000000
0.125000
0.000000
0.000000
0.000000
0.000000
0.000000
0.000000
0.000000
0.000000
0.000000
0.000000
0.000000
0.000000
0.000000
0.000000
0.000000
0.000000
0.000000
0.000000
0.000000
0.000000
0.000000
0.000000
0.000000
0.000000
0.000000
0.000000
0.000000
0.000000
0.000000
0.125000
0.000000
0.000000
0.000000
0.000000
0.000000
0.000000
0.000000
0.000000
0.000000
0.000000
0.000000
0.000000
0.000000
0.000000
0.000000
0.000000
0.000000
0.000000
0.000000
0.000000
0.000000
0.000000
0.000000
0.000000
0.000000
0.000000
0.000000
0.000000
0.000000
0.125000
0.000000
0.000000
0.000000
0.000000
0.000000
0.000000
0.000000
0.000000
0.000000
0.000000
0.000000
0.000000
0.000000
0.000000
0.000000
0.000000
0.000000
0.000000
0.000000
0.000000
0.000000
0.000000
0.000000
0.000000
0.000000
0.000000
0.000000
0.000000
0.000000
0.125000
0.000000
0.000000
0.000000
0.000000
0.000000
0.000000
0.000000
0.000000
0.000000
0.000000
0.000000
0.000000
0.000000
0.000000
0.000000
0.000000
0.000000
0.000000
0.000000
0.000000
0.000000
0.000000
0.000000
0.000000
0.000000
0.000000
0.000000
0.000000
0.000000
0.125000
0.000000
0.000000
0.000000
0.000000
0.000000
0.000000
0.000000
0.000000
0.000000
0.000000
0.000000
0.000000
0.000000
0.000000
0.000000
0.000000
0.000000
0.000000
0.000000
0.000000
0.000000
0.000000
0.000000
0.000000
0.000000
0.000000
0.000000
0.000000
0.000000
0.125000
0.000000
0.000000
0.000000
0.000000
0.000000
0.000000
0.000000
0.000000
0.000000
0.000000
0.000000
0.000000
0.000000
0.000000
0.000000
0.000000
0.000000
0.000000
0.000000
0.000000
0.000000
0.000000
0.000000
0.000000
0.000000
0.000000
0.000000
0.000000
0.000000
0.125000
0.000000
0.000000
0.000000
0.000000
0.000000
0.000000
0.000000
0.000000
0.000000
0.000000
0.000000
0.000000
0.000000
0.000000
0.000000
0.000000
0.000000
0.000000
0.000000
0.000000
0.000000
0.000000
0.000000
0.000000
0.000000
0.000000
0.000000
0.000000
0.000000
0.125000
0.000000
0.000000
0.000000
0.000000
0.000000
0.000000
0.000000
0.000000
0.000000
0.000000
0.000000
0.000000
0.000000
0.000000
0.000000
0.000000
0.000000
0.000000
0.000000
0.000000
0.000000
0.000000
0.000000
0.000000
0.000000
0.000000
0.000000
0.000000
0.000000
0.125000
0.000000
0.000000
0.000000
0.000000
0.000000
0.000000
0.000000
0.000000
0.000000
0.000000
0.000000
0.000000
0.000000
0.000000
0.000000
0.000000
0.000000
0.000000
0.000000
0.000000
0.000000
0.000000
0.000000
0.000000
0.000000
0.000000
0.000000
0.000000
0.000000
0.125000
0.000000
0.000000
0.000000
0.000000
0.000000
0.000000
0.000000
0.000000
0.000000
0.000000
0.000000
0.000000
0.000000
0.000000
0.000000
0.000000
0.000000
0.000000
0.000000
0.000000
0.000000
0.000000
0.000000
0.000000
0.000000
0.000000
0.000000
0.000000
0.000000
0.125000
0.000000
0.000000
0.000000
0.000000
0.000000
0.000000
0.000000
0.000000
0.000000
0.000000
0.000000
0.000000
0.000000
0.000000
0.000000
0.000000
0.000000
0.000000
0.000000
0.000000
0.000000
0.000000
0.000000
0.000000
0.000000
0.000000
0.000000
0.000000
0.000000
0.125000
0.000000
0.000000
0.000000
0.000000
0.000000
0.000000
0.000000
0.000000
0.000000
0.000000
0.000000
0.000000
0.000000
0.000000
0.000000
0.000000
0.000000
0.000000
0.000000
0.000000
0.000000
0.000000
0.000000
0.000000
0.000000
0.000000
0.000000
0.000000
0.000000
0.125000
0.000000
0.000000
0.000000
0.000000
0.000000
0.000000
0.000000
0.000000
0.000000
0.000000
0.000000
0.000000
0.000000
0.000000
0.000000
0.000000
0.000000
0.000000
0.000000
0.000000
0.000000
0.000000
0.000000
0.000000
0.000000
0.000000
0.000000
0.000000
0.000000
0.125000
0.000000
0.000000
0.000000
0.000000
0.000000
0.000000
0.000000
0.000000
0.000000
0.000000
0.000000
0.000000
0.000000
0.000000
0.000000
0.000000
0.000000
0.000000
0.000000
0.000000
0.000000
0.000000
0.000000
0.000000
0.000000
0.000000
0.000000
0.000000
0.000000
0.125000
0.000000
0.000000
0.000000
0.000000
0.000000
0.000000
0.000000
0.000000
0.000000
0.000000
0.000000
0.000000
0.000000
0.000000
0.000000
0.000000
0.000000
0.000000
0.000000
0.000000
0.000000
0.000000
0.000000
0.000000
0.000000
0.000000
0.000000
0.000000
0.000000
0.125000
0.000000
0.000000
0.000000
0.000000
0.000000
0.000000
0.000000
0.000000
0.000000
0.000000
0.000000
0.000000
0.000000
0.000000
0.000000
0.000000
0.000000
0.000000
0.000000
0.000000
0.000000
0.000000
0.000000
0.000000
0.000000
0.000000
0.000000
0.000000
0.000000
0.125000
0.000000
0.000000
0.000000
0.000000
0.000000
0.000000
0.000000
0.000000
0.000000
0.000000
0.000000
0.000000
0.000000
0.000000
0.000000
0.000000
0.000000
0.000000
0.000000
0.000000
0.000000
0.000000
0.000000
0.000000
0.000000
0.000000
0.000000
0.000000
0.000000
0.125000
0.000000
0.000000
0.000000
0.000000
0.000000
0.000000
0.000000
0.000000
0.000000
0.000000
0.000000
0.000000
0.000000
0.000000
0.000000
0.000000
0.000000
0.000000
0.000000
0.000000
0.000000
0.000000
0.000000
0.000000
0.000000
0.000000
0.000000
0.000000
0.000000
0.125000
0.000000
0.000000
0.000000
0.000000
0.000000
0.000000
0.000000
0.000000
0.000000
0.000000
0.000000
0.000000
0.000000
0.000000
0.000000
0.000000
0.000000
0.000000
0.000000
0.000000
0.000000
0.000000
0.000000
0.000000
0.000000
0.000000
0.000000
0.000000
0.000000
0.125000
0.000000
0.000000
0.000000
0.000000
0.000000
0.000000
0.000000
0.000000
0.000000
0.000000
0.000000
0.000000
0.000000
0.000000
0.000000
0.000000
0.000000
0.000000
0.000000
0.000000
0.000000
0.000000
0.000000
0.000000
0.000000
0.000000
0.000000
0.000000
0.000000
0.125000
0.000000
0.000000
0.000000
0.000000
0.000000
0.000000
0.000000
0.000000
0.000000
0.000000
0.000000
0.000000
0.000000
0.000000
0.000000
0.000000
0.000000
0.000000
0.000000
0.000000
0.000000
0.000000
0.000000
0.000000
0.000000
0.000000
0.000000
0.000000
0.000000
0.125000
0.000000
0.000000
0.000000
0.000000
0.000000
0.000000
0.000000
0.000000
0.000000
0.000000
0.000000
0.000000
0.000000
0.000000
0.000000
0.000000
0.000000
0.000000
0.000000
0.000000
0.000000
0.000000
0.000000
0.000000
0.000000
0.000000
0.000000
0.000000
0.000000
0.125000
0.000000
0.000000
0.000000
0.000000
0.000000
0.000000
0.000000
0.000000
0.000000
0.000000
0.000000
0.000000
0.000000
0.000000
0.000000
0.000000
0.000000
0.000000
0.000000
0.000000
0.000000
0.000000
0.000000
0.000000
0.000000
0.000000
0.000000
0.000000
0.000000
0.125000
0.000000
0.000000
0.000000
0.000000
0.000000
0.000000
0.000000
0.000000
0.000000
0.000000
0.000000
0.000000
0.000000
0.000000
0.000000
0.000000
0.000000
0.000000
0.000000
0.000000
0.000000
0.000000
0.000000
0.000000
0.000000
0.000000
0.000000
0.000000
0.000000
0.125000
0.000000
0.000000
0.000000
0.000000
0.000000
0.000000
0.000000
0.000000
0.000000
0.000000
0.000000
0.000000
0.000000
0.000000
0.000000
0.000000
0.000000
0.000000
0.000000
0.000000
0.000000
0.000000
0.000000
0.000000
0.000000
0.000000
0.000000
0.000000
0.000000
0.125000
0.000000
0.000000
0.000000
0.000000
0.000000
0.000000
0.000000
0.000000
0.000000
0.000000
0.000000
0.000000
0.000000
0.000000
0.000000
0.000000
0.000000
0.000000
0.000000
0.000000
0.000000
0.000000
0.000000
0.000000
0.000000
0.000000
0.000000
0.000000
0.000000
0.125000
0.000000
0.000000
0.000000
0.000000
0.000000
0.000000
0.000000
0.000000
0.000000
0.000000
0.000000
0.000000
0.000000
0.000000
0.000000
0.000000
0.000000
0.000000
0.000000
0.000000
0.000000
0.000000
0.000000
0.000000
0.000000
0.000000
0.000000
0.000000
0.000000
0.125000
0.065426
0.038471
0.027932
0.026458
0.025417
0.024356
0.023557
0.022922
0.022362
0.021730
0.021112
0.020501
0.020057
0.018601
0.017343
0.015943
0.013091
0.012441
0.011955
0.011458
0.010951
0.010495
0.010085
0.009675
0.009259
0.008845
0.008432
0.008095
0.000000
0.125000
0.069155
0.047996
0.036917
0.033182
0.031111
0.029524
0.028500
0.027611
0.026998
0.026485
0.026061
0.025712
0.025329
0.024224
0.021197
0.020169
0.017468
0.016256
0.015465
0.014865
0.014334
0.013878
0.013430
0.013004
0.012551
0.012079
0.011591
0.011174
0.000000
0.125000
0.069638
0.050216
0.038622
0.034164
0.032231
0.030689
0.029412
0.028592
0.028001
0.027602
0.027287
0.027042
0.026757
0.025975
0.023324
0.022351
0.019137
0.017357
0.016545
0.016053
0.015631
0.015215
0.014823
0.014415
0.014001
0.013556
0.013089
0.012676
0.000000
0.125000
0.069268
0.049692
0.038882
0.035602
0.033835
0.032091
0.030868
0.030028
0.029494
0.029064
0.028756
0.028508
0.028286
0.027915
0.025477
0.024935
0.021365
0.018989
0.018084
0.017588
0.017186
0.016813
0.016456
0.016076
0.015685
0.015273
0.014830
0.014426
0.000000
0.125000
0.069041
0.048918
0.038553
0.035846
0.034384
0.032929
0.031813
0.031025
0.030469
0.030051
0.029736
0.029458
0.029285
0.029316
0.027152
0.027038
0.023061
0.020195
0.019129
0.018612
0.018220
0.017846
0.017495
0.017128
0.016748
0.016348
0.015921
0.015519
0.000000
0.125000
0.069028
0.048618
0.038334
0.035850
0.034801
0.033647
0.032612
0.031891
0.031337
0.030929
0.030610
0.030297
0.030139
0.030470
0.028466
0.028650
0.024528
0.021312
0.020134
0.019605
0.019209
0.018826
0.018461
0.018098
0.017728
0.017337
0.016916
0.016512
0.000000
0.125000
0.068976
0.048391
0.038050
0.035652
0.034736
0.033696
0.032812
0.032127
0.031644
0.031249
0.030955
0.030684
0.030551
0.031113
0.029315
0.029710
0.025420
0.022002
0.020740
0.020163
0.019738
0.019315
0.018935
0.018547
0.018171
0.017775
0.017349
0.016941
0.000000
0.125000
0.068953
0.048389
0.038036
0.035670
0.034794
0.033825
0.032993
0.032411
0.031941
0.031588
0.031314
0.031047
0.030928
0.031581
0.029869
0.030393
0.026103
0.022617
0.021334
0.020749
0.020307
0.019874
0.019471
0.019087
0.018696
0.018303
0.017874
0.017463
0.000000
0.125000
0.068867
0.048312
0.037947
0.035512
0.034572
0.033578
0.032785
0.032246
0.031842
0.031532
0.031301
0.031079
0.030998
0.031680
0.030159
0.030596
0.026362
0.022881
0.021578
0.020935
0.020459
0.019984
0.019563
0.019135
0.018724
0.018309
0.017863
0.017433
0.000000
0.125000
0.068773
0.048335
0.037926
0.035410
0.034346
0.033217
0.032385
0.031832
0.031469
0.031199
0.031008
0.030878
0.030731
0.031388
0.030022
0.030326
0.026256
0.022917
0.021646
0.020951
0.020408
0.019913
0.019454
0.019020
0.018583
0.018155
0.017707
0.017271
0.000000
0.125000
0.068710
0.048328
0.037752
0.034998
0.033746
0.032452
0.031573
0.030943
0.030624
0.030406
0.030332
0.030320
0.030098
0.030790
0.029441
0.029567
0.025946
0.022734
0.021380
0.020557
0.019888
0.019318
0.018805
0.018331
0.017879
0.017435
0.016970
0.016529
0.000000
0.125000
0.068479
0.047837
0.037094
0.033890
0.032320
0.030868
0.029860
0.029198
0.028812
0.028624
0.028649
0.028694
0.028519
0.029368
0.028134
0.028150
0.024903
0.021892
0.020275
0.019272
0.018498
0.017865
0.017324
0.016822
0.016373
0.015926
0.015443
0.014987
0.000000
0.125000
0.068105
0.046859
0.035866
0.032309
0.030543
0.028943
0.027893
0.027115
0.026699
0.026514
0.026560
0.026651
0.026786
0.027762
0.026797
0.027256
0.023976
0.020971
0.019043
0.017783
0.016880
0.016199
0.015614
0.015128
0.014662
0.014218
0.013739
0.013272
0.000000
0.125000
0.066284
0.044006
0.032617
0.028020
0.025689
0.024040
0.023082
0.022375
0.021923
0.021517
0.021295
0.021030
0.021127
0.022018
0.023223
0.023668
0.019298
0.016401
0.014684
0.013474
0.012615
0.012002
0.011484
0.011016
0.010563
0.010131
0.009677
0.009241
0.000000
0.125000
0.047912
0.027136
0.018543
0.014693
0.012229
0.010253
0.009002
0.008239
0.007717
0.007353
0.007120
0.006969
0.006825
0.007696
0.010803
0.013039
0.009843
0.008014
0.006759
0.005804
0.005077
0.004557
0.004208
0.003932
0.003690
0.003496
0.003305
0.003105
0.000000
0.125000
0.067667
0.045602
0.031050
0.026924
0.025061
0.023646
0.022806
0.022194
0.021693
0.021132
0.020616
0.020042
0.019726
0.018619
0.019911
0.019964
0.016105
0.014093
0.013059
0.012272
0.011573
0.010961
0.010458
0.010000
0.009535
0.009085
0.008616
0.008197
0.000000
0.125000
0.069199
0.052019
0.040700
0.036308
0.033857
0.031952
0.030784
0.029925
0.029397
0.028937
0.028670
0.028443
0.027966
0.027557
0.025719
0.025569
0.023142
0.021030
0.019648
0.018563
0.017683
0.017038
0.016452
0.015923
0.015378
0.014831
0.014267
0.013749
0.000000
0.125000
0.068412
0.051557
0.041455
0.037605
0.035589
0.033896
0.032669
0.031769
0.031189
0.030806
0.030633
0.030462
0.029815
0.029562
0.027947
0.027228
0.024299
0.022115
0.020948
0.020188
0.019593
0.019036
0.018499
0.017975
0.017444
0.016918
0.016363
0.015843
0.000000
0.125000
0.068006
0.050291
0.041082
0.038622
0.037234
0.035722
0.034558
0.033724
0.033176
0.032780
0.032532
0.032329
0.031849
0.031878
0.030191
0.029774
0.026283
0.023610
0.022645
0.022127
0.021670
0.021216
0.020759
0.020275
0.019782
0.019281
0.018748
0.018247
0.000000
0.125000
0.067877
0.049222
0.040178
0.038301
0.037413
0.036295
0.035404
0.034663
0.034142
0.033712
0.033393
0.033136
0.032921
0.033281
0.031639
0.031607
0.027387
0.024267
0.023283
0.022886
0.022569
0.022236
0.021855
0.021431
0.020973
0.020493
0.019981
0.019491
0.000000
0.125000
0.067892
0.048776
0.039673
0.038003
0.037489
0.036700
0.035958
0.035344
0.034837
0.034398
0.034065
0.033783
0.033666
0.034302
0.032537
0.032813
0.028348
0.024900
0.023806
0.023447
0.023204
0.022914
0.022572
0.022184
0.021746
0.021284
0.020778
0.020285
0.000000
0.125000
0.067886
0.048608
0.039453
0.037846
0.037474
0.036780
0.036125
0.035523
0.035043
0.034600
0.034277
0.034002
0.033896
0.034677
0.032901
0.033354
0.028759
0.025176
0.024043
0.023704
0.023483
0.023206
0.022878
0.022507
0.022085
0.021633
0.021133
0.020640
0.000000
0.125000
0.067855
0.048607
0.039440
0.037808
0.037389
0.036631
0.035931
0.035336
0.034833
0.034410
0.034114
0.033861
0.033765
0.034572
0.032866
0.033282
0.028715
0.025140
0.023998
0.023627
0.023358
0.023046
0.022691
0.022295
0.021857
0.021398
0.020894
0.020395
0.000000
0.125000
0.067859
0.048952
0.039873
0.038110
0.037468
0.036461
0.035594
0.034950
0.034462
0.034045
0.033768
0.033539
0.033410
0.034073
0.032405
0.032677
0.028381
0.025015
0.023921
0.023505
0.023176
0.022806
0.022409
0.021992
0.021535
0.021060
0.020552
0.020056
0.000000
0.125000
0.067872
0.049494
0.040316
0.038050
0.036895
0.035587
0.034548
0.033775
0.033308
0.032949
0.032741
0.032590
0.032396
0.032857
0.031427
0.031408
0.027433
0.024371
0.023268
0.022692
0.022237
0.021774
0.021302
0.020828
0.020343
0.019844
0.019320
0.018823
0.000000
0.125000
0.068001
0.050833
0.041563
0.038216
0.035962
0.034269
0.033145
0.032356
0.031856
0.031556
0.031443
0.031350
0.031065
0.031329
0.029955
0.029555
0.026381
0.023735
0.022635
0.021779
0.021095
0.020527
0.020006
0.019485
0.018980
0.018478
0.017935
0.017426
0.000000
0.125000
0.068081
0.051335
0.039743
0.035578
0.033297
0.031435
0.030187
0.029466
0.028949
0.028710
0.028578
0.028578
0.028396
0.028735
0.027658
0.027229
0.024663
0.021599
0.020096
0.019155
0.018390
0.017693
0.017122
0.016601
0.016083
0.015571
0.015018
0.014491
0.000000
0.125000
0.069019
0.051618
0.037294
0.031646
0.029736
0.028198
0.027116
0.026164
0.025791
0.025378
0.025192
0.025167
0.025170
0.025562
0.025049
0.025242
0.023917
0.020376
0.017914
0.016548
0.015660
0.014993
0.014392
0.013899
0.013410
0.012899
0.012369
0.011867
0.000000
0.125000
0.047388
0.022822
0.017574
0.016998
0.015505
0.014549
0.014043
0.013798
0.013429
0.013114
0.012749
0.012453
0.012353
0.012388
0.013099
0.014840
0.010298
0.008934
0.008359
0.007645
0.007091
0.006704
0.006440
0.006162
0.005865
0.005587
0.005283
0.004996
0.000000
0.125000
0.000000
0.000000
0.000000
0.000000
0.000000
0.000000
0.000000
0.000000
0.000000
0.000000
0.000000
0.000000
0.000000
0.000000
0.000000
0.000000
0.000000
0.000000
0.000000
0.000000
0.000000
0.000000
0.000000
0.000000
0.000000
0.000000
0.000000
0.000000
0.000000
0.125000
0.069154
0.047995
0.036916
0.033193
0.031085
0.029549
0.028399
0.027568
0.027019
0.026413
0.026048
0.025718
0.025339
0.024188
0.021069
0.020010
0.017467
0.016230
0.015490
0.014862
0.014338
0.013865
0.013433
0.013008
0.012560
0.012081
0.011593
0.011170
0.000000
0.125000
0.081050
0.071139
0.058687
0.051015
0.046187
0.043356
0.041856
0.040544
0.039814
0.039296
0.039168
0.039133
0.038439
0.036250
0.024030
0.028830
0.026726
0.025449
0.024430
0.023519
0.022857
0.022338
0.021800
0.021271
0.020675
0.020033
0.019409
0.018926
0.000000
0.125000
0.084063
0.079391
0.069319
0.061221
0.055612
0.052273
0.050090
0.048685
0.047794
0.047324
0.047266
0.047149
0.046142
0.043175
0.024241
0.034936
0.032617
0.031466
0.030589
0.029755
0.029154
0.028621
0.028101
0.027527
0.026909
0.026259
0.025637
0.025167
0.000000
0.125000
0.083217
0.079010
0.071516
0.065339
0.060170
0.056560
0.054414
0.052978
0.052144
0.051604
0.051453
0.051223
0.050245
0.047488
0.024558
0.039287
0.036643
0.035327
0.034418
0.033601
0.033011
0.032517
0.032021
0.031473
0.030866
0.030252
0.029669
0.029213
0.000000
0.125000
0.082762
0.078391
0.071991
0.067029
0.062702
0.059644
0.057716
0.056349
0.055447
0.054844
0.054584
0.054243
0.053364
0.050872
0.025082
0.042885
0.040069
0.038593
0.037547
0.036717
0.036161
0.035696
0.035211
0.034678
0.034101
0.033520
0.032969
0.032526
0.000000
0.125000
0.082662
0.077904
0.071455
0.066980
0.063410
0.060957
0.059306
0.058058
0.057172
0.056614
0.056395
0.056066
0.055377
0.053205
0.025732
0.045497
0.042624
0.040962
0.039697
0.038752
0.038144
0.037658
0.037118
0.036564
0.035992
0.035424
0.034876
0.034428
0.000000
0.125000
0.082676
0.077724
0.071242
0.067014
0.063762
0.061602
0.060262
0.059118
0.058356
0.057841
0.057645
0.057333
0.056740
0.054744
0.026117
0.047312
0.044427
0.042786
0.041471
0.040451
0.039804
0.039301
0.038761
0.038198
0.037634
0.037074
0.036533
0.036084
0.000000
0.125000
0.082519
0.077360
0.070737
0.066484
0.063320
0.061306
0.060091
0.059127
0.058465
0.058065
0.057982
0.057792
0.057375
0.055591
0.026537
0.048377
0.045445
0.043762
0.042386
0.041310
0.040577
0.039993
0.039365
0.038765
0.038145
0.037550
0.036984
0.036523
0.000000
0.125000
0.082465
0.077392
0.070707
0.066365
0.063144
0.061127
0.059983
0.059139
0.058585
0.058265
0.058247
0.058119
0.057746
0.055963
0.026882
0.048885
0.046132
0.044605
0.043310
0.042250
0.041501
0.040866
0.040219
0.039587
0.038946
0.038336
0.037759
0.037296
0.000000
0.125000
0.082299
0.077105
0.070164
0.065446
0.061869
0.059579
0.058346
0.057506
0.057056
0.056876
0.057049
0.057157
0.056880
0.055274
0.026835
0.048394
0.045743
0.044368
0.043071
0.041855
0.040916
0.040154
0.039403
0.038706
0.038003
0.037352
0.036768
0.036284
0.000000
0.125000
0.082244
0.076781
0.069220
0.063887
0.059799
0.057150
0.055761
0.054797
0.054439
0.054434
0.054867
0.055196
0.055022
0.053667
0.026425
0.047108
0.044923
0.043622
0.042142
0.040678
0.039520
0.038628
0.037818
0.037079
0.036371
0.035710
0.035107
0.034624
0.000000
0.125000
0.081824
0.075565
0.067039
0.060645
0.055744
0.052692
0.051020
0.050024
0.049643
0.049805
0.050591
0.051308
0.051613
0.050751
0.025280
0.044927
0.043148
0.041621
0.039470
0.037525
0.036102
0.035080
0.034229
0.033446
0.032737
0.032074
0.031455
0.030954
0.000000
0.125000
0.080399
0.071623
0.061237
0.053804
0.048421
0.045139
0.043390
0.042261
0.041825
0.042016
0.042851
0.043902
0.045298
0.045709
0.024249
0.042023
0.039642
0.037002
0.033997
0.031715
0.030224
0.029232
0.028410