# vtk DataFile Version 3.0
LBM Simulation Data (speed_m_per_s) [FIXED_SCALING_v11]
ASCII
DATASET STRUCTURED_GRID
DIMENSIONS 30 30 30
POINTS 27000 float
0 0 0
1 0 0
2 0 0
3 0 0
4 0 0
5 0 0
6 0 0
7 0 0
8 0 0
9 0 0
10 0 0
11 0 0
12 0 0
13 0 0
14 0 0
15 0 0
16 0 0
17 0 0
18 0 0
19 0 0
20 0 0
21 0 0
22 0 0
23 0 0
24 0 0
25 0 0
26 0 0
27 0 0
28 0 0
29 0 0
0 1 0
1 1 0
2 1 0
3 1 0
4 1 0
5 1 0
6 1 0
7 1 0
8 1 0
9 1 0
10 1 0
11 1 0
12 1 0
13 1 0
14 1 0
15 1 0
16 1 0
17 1 0
18 1 0
19 1 0
20 1 0
21 1 0
22 1 0
23 1 0
24 1 0
25 1 0
26 1 0
27 1 0
28 1 0
29 1 0
0 2 0
1 2 0
2 2 0
3 2 0
4 2 0
5 2 0
6 2 0
7 2 0
8 2 0
9 2 0
10 2 0
11 2 0
12 2 0
13 2 0
14 2 0
15 2 0
16 2 0
17 2 0
18 2 0
19 2 0
20 2 0
21 2 0
22 2 0
23 2 0
24 2 0
25 2 0
26 2 0
27 2 0
28 2 0
29 2 0
0 3 0
1 3 0
2 3 0
3 3 0
4 3 0
5 3 0
6 3 0
7 3 0
8 3 0
9 3 0
10 3 0
11 3 0
12 3 0
13 3 0
14 3 0
15 3 0
16 3 0
17 3 0
18 3 0
19 3 0
20 3 0
21 3 0
22 3 0
23 3 0
24 3 0
25 3 0
26 3 0
27 3 0
28 3 0
29 3 0
0 4 0
1 4 0
2 4 0
3 4 0
4 4 0
5 4 0
6 4 0
7 4 0
8 4 0
9 4 0
10 4 0
11 4 0
12 4 0
13 4 0
14 4 0
15 4 0
16 4 0
17 4 0
18 4 0
19 4 0
20 4 0
21 4 0
22 4 0
23 4 0
24 4 0
25 4 0
26 4 0
27 4 0
28 4 0
29 4 0
0 5 0
1 5 0
2 5 0
3 5 0
4 5 0
5 5 0
6 5 0
7 5 0
8 5 0
9 5 0
10 5 0
11 5 0
12 5 0
13 5 0
14 5 0
15 5 0
16 5 0
17 5 0
18 5 0
19 5 0
20 5 0
21 5 0
22 5 0
23 5 0
24 5 0
25 5 0
26 5 0
27 5 0
28 5 0
29 5 0
0 6 0
1 6 0
2 6 0
3 6 0
4 6 0
5 6 0
6 6 0
7 6 0
8 6 0
9 6 0
10 6 0
11 6 0
12 6 0
13 6 0
14 6 0
15 6 0
16 6 0
17 6 0
18 6 0
19 6 0
20 6 0
21 6 0
22 6 0
23 6 0
24 6 0
25 6 0
26 6 0
27 6 0
28 6 0
29 6 0
0 7 0
1 7 0
2 7 0
3 7 0
4 7 0
5 7 0
6 7 0
7 7 0
8 7 0
9 7 0
10 7 0
11 7 0
12 7 0
13 7 0
14 7 0
15 7 0
16 7 0
17 7 0
18 7 0
19 7 0
20 7 0
21 7 0
22 7 0
23 7 0
24 7 0
25 7 0
26 7 0
27 7 0
28 7 0
29 7 0
0 8 0
1 8 0
2 8 0
3 8 0
4 8 0
5 8 0
6 8 0
7 8 0
8 8 0
9 8 0
10 8 0
11 8 0
12 8 0
13 8 0
14 8 0
15 8 0
16 8 0
17 8 0
18 8 0
19 8 0
20 8 0
21 8 0
22 8 0
23 8 0
24 8 0
25 8 0
26 8 0
27 8 0
28 8 0
29 8 0
0 9 0
1 9 0
2 9 0
3 9 0
4 9 0
5 9 0
6 9 0
7 9 0
8 9 0
9 9 0
10 9 0
11 9 0
12 9 0
13 9 0
14 9 0
15 9 0
16 9 0
17 9 0
18 9 0
19 9 0
20 9 0
21 9 0
22 9 0
23 9 0
24 9 0
25 9 0
26 9 0
27 9 0
28 9 0
29 9 0
0 10 0
1 10 0
2 10 0
3 10 0
4 10 0
5 10 0
6 10 0
7 10 0
8 10 0
9 10 0
10 10 0
11 10 0
12 10 0
13 10 0
14 10 0
15 10 0
16 10 0
17 10 0
18 10 0
19 10 0
20 10 0
21 10 0
22 10 0
23 10 0
24 10 0
25 10 0
26 10 0
27 10 0
28 10 0
29 10 0
0 11 0
1 11 0
2 11 0
3 11 0
4 11 0
5 11 0
6 11 0
7 11 0
8 11 0
9 11 0
10 11 0
11 11 0
12 11 0
13 11 0
14 11 0
15 11 0
16 11 0
17 11 0
18 11 0
19 11 0
20 11 0
21 11 0
22 11 0
23 11 0
24 11 0
25 11 0
26 11 0
27 11 0
28 11 0
29 11 0
0 12 0
1 12 0
2 12 0
3 12 0
4 12 0
5 12 0
6 12 0
7 12 0
8 12 0
9 12 0
10 12 0
11 12 0
12 12 0
13 12 0
14 12 0
15 12 0
16 12 0
17 12 0
18 12 0
19 12 0
20 12 0
21 12 0
22 12 0
23 12 0
24 12 0
25 12 0
26 12 0
27 12 0
28 12 0
29 12 0
0 13 0
1 13 0
2 13 0
3 13 0
4 13 0
5 13 0
6 13 0
7 13 0
8 13 0
9 13 0
10 13 0
11 13 0
12 13 0
13 13 0
14 13 0
15 13 0
16 13 0
17 13 0
18 13 0
19 13 0
20 13 0
21 13 0
22 13 0
23 13 0
24 13 0
25 13 0
26 13 0
27 13 0
28 13 0
29 13 0
0 14 0
1 14 0
2 14 0
3 14 0
4 14 0
5 14 0
6 14 0
7 14 0
8 14 0
9 14 0
10 14 0
11 14 0
12 14 0
13 14 0
14 14 0
15 14 0
16 14 0
17 14 0
18 14 0
19 14 0
20 14 0
21 14 0
22 14 0
23 14 0
24 14 0
25 14 0
26 14 0
27 14 0
28 14 0
29 14 0
0 15 0
1 15 0
2 15 0
3 15 0
4 15 0
5 15 0
6 15 0
7 15 0
8 15 0
9 15 0
10 15 0
11 15 0
12 15 0
13 15 0
14 15 0
15 15 0
16 15 0
17 15 0
18 15 0
19 15 0
20 15 0
21 15 0
22 15 0
23 15 0
24 15 0
25 15 0
26 15 0
27 15 0
28 15 0
29 15 0
0 16 0
1 16 0
2 16 0
3 16 0
4 16 0
5 16 0
6 16 0
7 16 0
8 16 0
9 16 0
10 16 0
11 16 0
12 16 0
13 16 0
14 16 0
15 16 0
16 16 0
17 16 0
18 16 0
19 16 0
20 16 0
21 16 0
22 16 0
23 16 0
24 16 0
25 16 0
26 16 0
27 16 0
28 16 0
29 16 0
0 17 0
1 17 0
2 17 0
3 17 0
4 17 0
5 17 0
6 17 0
7 17 0
8 17 0
9 17 0
10 17 0
11 17 0
12 17 0
13 17 0
14 17 0
15 17 0
16 17 0
17 17 0
18 17 0
19 17 0
20 17 0
21 17 0
22 17 0
23 17 0
24 17 0
25 17 0
26 17 0
27 17 0
28 17 0
29 17 0
0 18 0
1 18 0
2 18 0
3 18 0
4 18 0
5 18 0
6 18 0
7 18 0
8 18 0
9 18 0
10 18 0
11 18 0
12 18 0
13 18 0
14 18 0
15 18 0
16 18 0
17 18 0
18 18 0
19 18 0
20 18 0
21 18 0
22 18 0
23 18 0
24 18 0
25 18 0
26 18 0
27 18 0
28 18 0
29 18 0
0 19 0
1 19 0
2 19 0
3 19 0
4 19 0
5 19 0
6 19 0
7 19 0
8 19 0
9 19 0
10 19 0
11 19 0
12 19 0
13 19 0
14 19 0
15 19 0
16 19 0
17 19 0
18 19 0
19 19 0
20 19 0
21 19 0
22 19 0
23 19 0
24 19 0
25 19 0
26 19 0
27 19 0
28 19 0
29 19 0
0 20 0
1 20 0
2 20 0
3 20 0
4 20 0
5 20 0
6 20 0
7 20 0
8 20 0
9 20 0
10 20 0
11 20 0
12 20 0
13 20 0
14 20 0
15 20 0
16 20 0
17 20 0
18 20 0
19 20 0
20 20 0
21 20 0
22 20 0
23 20 0
24 20 0
25 20 0
26 20 0
27 20 0
28 20 0
29 20 0
0 21 0
1 21 0
2 21 0
3 21 0
4 21 0
5 21 0
6 21 0
7 21 0
8 21 0
9 21 0
10 21 0
11 21 0
12 21 0
13 21 0
14 21 0
15 21 0
16 21 0
17 21 0
18 21 0
19 21 0
20 21 0
21 21 0
22 21 0
23 21 0
24 21 0
25 21 0
26 21 0
27 21 0
28 21 0
29 21 0
0 22 0
1 22 0
2 22 0
3 22 0
4 22 0
5 22 0
6 22 0
7 22 0
8 22 0
9 22 0
10 22 0
11 22 0
12 22 0
13 22 0
14 22 0
15 22 0
16 22 0
17 22 0
18 22 0
19 22 0
20 22 0
21 22 0
22 22 0
23 22 0
24 22 0
25 22 0
26 22 0
27 22 0
28 22 0
29 22 0
0 23 0
1 23 0
2 23 0
3 23 0
4 23 0
5 23 0
6 23 0
7 23 0
8 23 0
9 23 0
10 23 0
11 23 0
12 23 0
13 23 0
14 23 0
15 23 0
16 23 0
17 23 0
18 23 0
19 23 0
20 23 0
21 23 0
22 23 0
23 23 0
24 23 0
25 23 0
26 23 0
27 23 0
28 23 0
29 23 0
0 24 0
1 24 0
2 24 0
3 24 0
4 24 0
5 24 0
6 24 0
7 24 0
8 24 0
9 24 0
10 24 0
11 24 0
12 24 0
13 24 0
14 24 0
15 24 0
16 24 0
17 24 0
18 24 0
19 24 0
20 24 0
21 24 0
22 24 0
23 24 0
24 24 0
25 24 0
26 24 0
27 24 0
28 24 0
29 24 0
0 25 0
1 25 0
2 25 0
3 25 0
4 25 0
5 25 0
6 25 0
7 25 0
8 25 0
9 25 0
10 25 0
11 25 0
12 25 0
13 25 0
14 25 0
15 25 0
16 25 0
17 25 0
18 25 0
19 25 0
20 25 0
21 25 0
22 25 0
23 25 0
24 25 0
25 25 0
26 25 0
27 25 0
28 25 0
29 25 0
0 26 0
1 26 0
2 26 0
3 26 0
4 26 0
5 26 0
6 26 0
7 26 0
8 26 0
9 26 0
10 26 0
11 26 0
12 26 0
13 26 0
14 26 0
15 26 0
16 26 0
17 26 0
18 26 0
19 26 0
20 26 0
21 26 0
22 26 0
23 26 0
24 26 0
25 26 0
26 26 0
27 26 0
28 26 0
29 26 0
0 27 0
1 27 0
2 27 0
3 27 0
4 27 0
5 27 0
6 27 0
7 27 0
8 27 0
9 27 0
10 27 0
11 27 0
12 27 0
13 27 0
14 27 0
15 27 0
16 27 0
17 27 0
18 27 0
19 27 0
20 27 0
21 27 0
22 27 0
23 27 0
24 27 0
25 27 0
26 27 0
27 27 0
28 27 0
29 27 0
0 28 0
1 28 0
2 28 0
3 28 0
4 28 0
5 28 0
6 28 0
7 28 0
8 28 0
9 28 0
10 28 0
11 28 0
12 28 0
13 28 0
14 28 0
15 28 0
16 28 0
17 28 0
18 28 0
19 28 0
20 28 0
21 28 0
22 28 0
23 28 0
24 28 0
25 28 0
26 28 0
27 28 0
28 28 0
29 28 0
0 29 0
1 29 0
2 29 0
3 29 0
4 29 0
5 29 0
6 29 0
7 29 0
8 29 0
9 29 0
10 29 0
11 29 0
12 29 0
13 29 0
14 29 0
15 29 0
16 29 0
17 29 0
18 29 0
19 29 0
20 29 0
21 29 0
22 29 0
23 29 0
24 29 0
25 29 0
26 29 0
27 29 0
28 29 0
29 29 0
0 0 1
1 0 1
2 0 1
3 0 1
4 0 1
5 0 1
6 0 1
7 0 1
8 0 1
9 0 1
10 0 1
11 0 1
12 0 1
13 0 1
14 0 1
15 0 1
16 0 1
17 0 1
18 0 1
19 0 1
20 0 1
21 0 1
22 0 1
23 0 1
24 0 1
25 0 1
26 0 1
27 0 1
28 0 1
29 0 1
0 1 1
1 1 1
2 1 1
3 1 1
4 1 1
5 1 1
6 1 1
7 1 1
8 1 1
9 1 1
10 1 1
11 1 1
12 1 1
13 1 1
14 1 1
15 1 1
16 1 1
17 1 1
18 1 1
19 1 1
20 1 1
21 1 1
22 1 1
23 1 1
24 1 1
25 1 1
26 1 1
27 1 1
28 1 1
29 1 1
0 2 1
1 2 1
2 2 1
3 2 1
4 2 1
5 2 1
6 2 1
7 2 1
8 2 1
9 2 1
10 2 1
11 2 1
12 2 1
13 2 1
14 2 1
15 2 1
16 2 1
17 2 1
18 2 1
19 2 1
20 2 1
21 2 1
22 2 1
23 2 1
24 2 1
25 2 1
26 2 1
27 2 1
28 2 1
29 2 1
0 3 1
1 3 1
2 3 1
3 3 1
4 3 1
5 3 1
6 3 1
7 3 1
8 3 1
9 3 1
10 3 1
11 3 1
12 3 1
13 3 1
14 3 1
15 3 1
16 3 1
17 3 1
18 3 1
19 3 1
20 3 1
21 3 1
22 3 1
23 3 1
24 3 1
25 3 1
26 3 1
27 3 1
28 3 1
29 3 1
0 4 1
1 4 1
2 4 1
3 4 1
4 4 1
5 4 1
6 4 1
7 4 1
8 4 1
9 4 1
10 4 1
11 4 1
12 4 1
13 4 1
14 4 1
15 4 1
16 4 1
17 4 1
18 4 1
19 4 1
20 4 1
21 4 1
22 4 1
23 4 1
24 4 1
25 4 1
26 4 1
27 4 1
28 4 1
29 4 1
0 5 1
1 5 1
2 5 1
3 5 1
4 5 1
5 5 1
6 5 1
7 5 1
8 5 1
9 5 1
10 5 1
11 5 1
12 5 1
13 5 1
14 5 1
15 5 1
16 5 1
17 5 1
18 5 1
19 5 1
20 5 1
21 5 1
22 5 1
23 5 1
24 5 1
25 5 1
26 5 1
27 5 1
28 5 1
29 5 1
0 6 1
1 6 1
2 6 1
3 6 1
4 6 1
5 6 1
6 6 1
7 6 1
8 6 1
9 6 1
10 6 1
11 6 1
12 6 1
13 6 1
14 6 1
15 6 1
16 6 1
17 6 1
18 6 1
19 6 1
20 6 1
21 6 1
22 6 1
23 6 1
24 6 1
25 6 1
26 6 1
27 6 1
28 6 1
29 6 1
0 7 1
1 7 1
2 7 1
3 7 1
4 7 1
5 7 1
6 7 1
7 7 1
8 7 1
9 7 1
10 7 1
11 7 1
12 7 1
13 7 1
14 7 1
15 7 1
16 7 1
17 7 1
18 7 1
19 7 1
20 7 1
21 7 1
22 7 1
23 7 1
24 7 1
25 7 1
26 7 1
27 7 1
28 7 1
29 7 1
0 8 1
1 8 1
2 8 1
3 8 1
4 8 1
5 8 1
6 8 1
7 8 1
8 8 1
9 8 1
10 8 1
11 8 1
12 8 1
13 8 1
14 8 1
15 8 1
16 8 1
17 8 1
18 8 1
19 8 1
20 8 1
21 8 1
22 8 1
23 8 1
24 8 1
25 8 1
26 8 1
27 8 1
28 8 1
29 8 1
0 9 1
1 9 1
2 9 1
3 9 1
4 9 1
5 9 1
6 9 1
7 9 1
8 9 1
9 9 1
10 9 1
11 9 1
12 9 1
13 9 1
14 9 1
15 9 1
16 9 1
17 9 1
18 9 1
19 9 1
20 9 1
21 9 1
22 9 1
23 9 1
24 9 1
25 9 1
26 9 1
27 9 1
28 9 1
29 9 1
0 10 1
1 10 1
2 10 1
3 10 1
4 10 1
5 10 1
6 10 1
7 10 1
8 10 1
9 10 1
10 10 1
11 10 1
12 10 1
13 10 1
14 10 1
15 10 1
16 10 1
17 10 1
18 10 1
19 10 1
20 10 1
21 10 1
22 10 1
23 10 1
24 10 1
25 10 1
26 10 1
27 10 1
28 10 1
29 10 1
0 11 1
1 11 1
2 11 1
3 11 1
4 11 1
5 11 1
6 11 1
7 11 1
8 11 1
9 11 1
10 11 1
11 11 1
12 11 1
13 11 1
14 11 1
15 11 1
16 11 1
17 11 1
18 11 1
19 11 1
20 11 1
21 11 1
22 11 1
23 11 1
24 11 1
25 11 1
26 11 1
27 11 1
28 11 1
29 11 1
0 12 1
1 12 1
2 12 1
3 12 1
4 12 1
5 12 1
6 12 1
7 12 1
8 12 1
9 12 1
10 12 1
11 12 1
12 12 1
13 12 1
14 12 1
15 12 1
16 12 1
17 12 1
18 12 1
19 12 1
20 12 1
21 12 1
22 12 1
23 12 1
24 12 1
25 12 1
26 12 1
27 12 1
28 12 1
29 12 1
0 13 1
1 13 1
2 13 1
3 13 1
4 13 1
5 13 1
6 13 1
7 13 1
8 13 1
9 13 1
10 13 1
11 13 1
12 13 1
13 13 1
14 13 1
15 13 1
16 13 1
17 13 1
18 13 1
19 13 1
20 13 1
21 13 1
22 13 1
23 13 1
24 13 1
25 13 1
26 13 1
27 13 1
28 13 1
29 13 1
0 14 1
1 14 1
2 14 1
3 14 1
4 14 1
5 14 1
6 14 1
7 14 1
8 14 1
9 14 1
10 14 1
11 14 1
12 14 1
13 14 1
14 14 1
15 14 1
16 14 1
17 14 1
18 14 1
19 14 1
20 14 1
21 14 1
22 14 1
23 14 1
24 14 1
25 14 1
26 14 1
27 14 1
28 14 1
29 14 1
0 15 1
1 15 1
2 15 1
3 15 1
4 15 1
5 15 1
6 15 1
7 15 1
8 15 1
9 15 1
10 15 1
11 15 1
12 15 1
[...]
POINT_DATA 27000
SCALARS speed_m_per_s float 1
LOOKUP_TABLE default
0.125000
0.000000
0.000000
0.000000
0.000000
0.000000
0.000000
0.000000
0.000000
0.000000
0.000000
0.000000
0.000000
0.000000
0.000000
0.000000
0.000000
0.000000
0.000000
0.000000
0.000000
0.000000
0.000000
0.000000
0.000000
0.000000
0.000000
0.000000
0.000000
0.000000
0.125000
0.000000
0.000000
0.000000
0.000000
0.000000
0.000000
0.000000
0.000000
0.000000
0.000000
0.000000
0.000000
0.000000
0.000000
0.000000
0.000000
0.000000
0.000000
0.000000
0.000000
0.000000
0.000000
0.000000
0.000000
0.000000
0.000000
0.000000
0.000000
0.000000
0.125000
0.000000
0.000000
0.000000
0.000000
0.000000
0.000000
0.000000
0.000000
0.000000
0.000000
0.000000
0.000000
0.000000
0.000000
0.000000
0.000000
0.000000
0.000000
0.000000
0.000000
0.000000
0.000000
0.000000
0.000000
0.000000
0.000000
0.000000
0.000000
0.000000
0.125000
0.000000
0.000000
0.000000
0.000000
0.000000
0.000000
0.000000
0.000000
0.000000
0.000000
0.000000
0.000000
0.000000
0.000000
0.000000
0.000000
0.000000
0.000000
0.000000
0.000000
0.000000
0.000000
0.000000
0.000000
0.000000
0.000000
0.000000
0.000000
0.000000
0.125000
0.000000
0.000000
0.000000
0.000000
0.000000
0.000000
0.000000
0.000000
0.000000
0.000000
0.000000
0.000000
0.000000
0.000000
0.000000
0.000000
0.000000
0.000000
0.000000
0.000000
0.000000
0.000000
0.000000
0.000000
0.000000
0.000000
0.000000
0.000000
0.000000
0.125000
0.000000
0.000000
0.000000
0.000000
0.000000
0.000000
0.000000
0.000000
0.000000
0.000000
0.000000
0.000000
0.000000
0.000000
0.000000
0.000000
0.000000
0.000000
0.000000
0.000000
0.000000
0.000000
0.000000
0.000000
0.000000
0.000000
0.000000
0.000000
0.000000
0.125000
0.000000
0.000000
0.000000
0.000000
0.000000
0.000000
0.000000
0.000000
0.000000
0.000000
0.000000
0.000000
0.000000
0.000000
0.000000
0.000000
0.000000
0.000000
0.000000
0.000000
0.000000
0.000000
0.000000
0.000000
0.000000
0.000000
0.000000
0.000000
0.000000
0.125000
0.000000
0.000000
0.000000
0.000000
0.000000
0.000000
0.000000
0.000000
0.000000
0.000000
0.000000
0.000000
0.000000
0.000000
0.000000
0.000000
0.000000
0.000000
0.000000
0.000000
0.000000
0.000000
0.000000
0.000000
0.000000
0.000000
0.000000
0.000000
0.000000
0.125000
0.000000
0.000000
0.000000
0.000000
0.000000
0.000000
0.000000
0.000000
0.000000
0.000000
0.000000
0.000000
0.000000
0.000000
0.000000
0.000000
0.000000
0.000000
0.000000
0.000000
0.000000
0.000000
0.000000
0.000000
0.000000
0.000000
0.000000
0.000000
0.000000
0.125000
0.000000
0.000000
0.000000
0.000000
0.000000
0.000000
0.000000
0.000000
0.000000
0.000000
0.000000
0.000000
0.000000
0.000000
0.000000
0.000000
0.000000
0.000000
0.000000
0.000000
0.000000
0.000000
0.000000
0.000000
0.000000
0.000000
0.000000
0.000000
0.000000
0.125000
0.000000
0.000000
0.000000
0.000000
0.000000
0.000000
0.000000
0.000000
0.000000
0.000000
0.000000
0.000000
0.000000
0.000000
0.000000
0.000000
0.000000
0.000000
0.000000
0.000000
0.000000
0.000000
0.000000
0.000000
0.000000
0.000000
0.000000
0.000000
0.000000
0.125000
0.000000
0.000000
0.000000
0.000000
0.000000
0.000000
0.000000
0.000000
0.000000
0.000000
0.000000
0.000000
0.000000
0.000000
0.000000
0.000000
0.000000
0.000000
0.000000
0.000000
0.000000
0.000000
0.000000
0.000000
0.000000
0.000000
0.000000
0.000000
0.000000
0.125000
0.000000
0.000000
0.000000
0.000000
0.000000
0.000000
0.000000
0.000000
0.000000
0.000000
0.000000
0.000000
0.000000
0.000000
0.000000
0.000000
0.000000
0.000000
0.000000
0.000000
0.000000
0.000000
0.000000
0.000000
0.000000
0.000000
0.000000
0.000000
0.000000
0.125000
0.000000
0.000000
0.000000
0.000000
0.000000
0.000000
0.000000
0.000000
0.000000
0.000000
0.000000
0.000000
0.000000
0.000000
0.000000
0.000000
0.000000
0.000000
0.000000
0.000000
0.000000
0.000000
0.000000
0.000000
0.000000
0.000000
0.000000
0.000000
0.000000
0.125000
0.000000
0.000000
0.000000
0.000000
0.000000
0.000000
0.000000
0.000000
0.000000
0.000000
0.000000
0.000000
0.000000
0.000000
0.000000
0.000000
0.000000
0.000000
0.000000
0.000000
0.000000
0.000000
0.000000
0.000000
0.000000
0.000000
0.000000
0.000000
0.000000
0.125000
0.000000
0.000000
0.000000
0.000000
0.000000
0.000000
0.000000
0.000000
0.000000
0.000000
0.000000
0.000000
0.000000
0.000000
0.000000
0.000000
0.000000
0.000000
0.000000
0.000000
0.000000
0.000000
0.000000
0.000000
0.000000
0.000000
0.000000
0.000000
0.000000
0.125000
0.000000
0.000000
0.000000
0.000000
0.000000
0.000000
0.000000
0.000000
0.000000
0.000000
0.000000
0.000000
0.000000
0.000000
0.000000
0.000000
0.000000
0.000000
0.000000
0.000000
0.000000
0.000000
0.000000
0.000000
0.000000
0.000000
0.000000
0.000000
0.000000
0.125000
0.000000
0.000000
0.000000
0.000000
0.000000
0.000000
0.000000
0.000000
0.000000
0.000000
0.000000
0.000000
0.000000
0.000000
0.000000
0.000000
0.000000
0.000000
0.000000
0.000000
0.000000
0.000000
0.000000
0.000000
0.000000
0.000000
0.000000
0.000000
0.000000
0.125000
0.000000
0.000000
0.000000
0.000000
0.000000
0.000000
0.000000
0.000000
0.000000
0.000000
0.000000
0.000000
0.000000
0.000000
0.000000
0.000000
0.000000
0.000000
0.000000
0.000000
0.000000
0.000000
0.000000
0.000000
0.000000
0.000000
0.000000
0.000000
0.000000
0.125000
0.000000
0.000000
0.000000
0.000000
0.000000
0.000000
0.000000
0.000000
0.000000
0.000000
0.000000
0.000000
0.000000
0.000000
0.000000
0.000000
0.000000
0.000000
0.000000
0.000000
0.000000
0.000000
0.000000
0.000000
0.000000
0.000000
0.000000
0.000000
0.000000
0.125000
0.000000
0.000000
0.000000
0.000000
0.000000
0.000000
0.000000
0.000000
0.000000
0.000000
0.000000
0.000000
0.000000
0.000000
0.000000
0.000000
0.000000
0.000000
0.000000
0.000000
0.000000
0.000000
0.000000
0.000000
0.000000
0.000000
0.000000
0.000000
0.000000
0.125000
0.000000
0.000000
0.000000
0.000000
0.000000
0.000000
0.000000
0.000000
0.000000
0.000000
0.000000
0.000000
0.000000
0.000000
0.000000
0.000000
0.000000
0.000000
0.000000
0.000000
0.000000
0.000000
0.000000
0.000000
0.000000
0.000000
0.000000
0.000000
0.000000
0.125000
0.000000
0.000000
0.000000
0.000000
0.000000
0.000000
0.000000
0.000000
0.000000
0.000000
0.000000
0.000000
0.000000
0.000000
0.000000
0.000000
0.000000
0.000000
0.000000
0.000000
0.000000
0.000000
0.000000
0.000000
0.000000
0.000000
0.000000
0.000000
0.000000
0.125000
0.000000
0.000000
0.000000
0.000000
0.000000
0.000000
0.000000
0.000000
0.000000
0.000000
0.000000
0.000000
0.000000
0.000000
0.000000
0.000000
0.000000
0.000000
0.000000
0.000000
0.000000
0.000000
0.000000
0.000000
0.000000
0.000000
0.000000
0.000000
0.000000
0.125000
0.000000
0.000000
0.000000
0.000000
0.000000
0.000000
0.000000
0.000000
0.000000
0.000000
0.000000
0.000000
0.000000
0.000000
0.000000
0.000000
0.000000
0.000000
0.000000
0.000000
0.000000
0.000000
0.000000
0.000000
0.000000
0.000000
0.000000
0.000000
0.000000
0.125000
0.000000
0.000000
0.000000
0.000000
0.000000
0.000000
0.000000
0.000000
0.000000
0.000000
0.000000
0.000000
0.000000
0.000000
0.000000
0.000000
0.000000
0.000000
0.000000
0.000000
0.000000
0.000000
0.000000
0.000000
0.000000
0.000000
0.000000
0.000000
0.000000
0.125000
0.000000
0.000000
0.000000
0.000000
0.000000
0.000000
0.000000
0.000000
0.000000
0.000000
0.000000
0.000000
0.000000
0.000000
0.000000
0.000000
0.000000
0.000000
0.000000
0.000000
0.000000
0.000000
0.000000
0.000000
0.000000
0.000000
0.000000
0.000000
0.000000
0.125000
0.000000
0.000000
0.000000
0.000000
0.000000
0.000000
0.000000
0.000000
0.000000
0.000000
0.000000
0.000000
0.000000
0.000000
0.000000
0.000000
0.000000
0.000000
0.000000
0.000000
0.000000
0.000000
0.000000
0.000000
0.000000
0.000000
0.000000
0.000000
0.000000
0.125000
0.000000
0.000000
0.000000
0.000000
0.000000
0.000000
0.000000
0.000000
0.000000
0.000000
0.000000
0.000000
0.000000
0.000000
0.000000
0.000000
0.000000
0.000000
0.000000
0.000000
0.000000
0.000000
0.000000
0.000000
0.000000
0.000000
0.000000
0.000000
0.000000
0.125000
0.000000
0.000000
0.000000
0.000000
0.000000
0.000000
0.000000
0.000000
0.000000
0.000000
0.000000
0.000000
0.000000
0.000000
0.000000
0.000000
0.000000
0.000000
0.000000
0.000000
0.000000
0.000000
0.000000
0.000000
0.000000
0.000000
0.000000
0.000000
0.000000
0.125000
0.000000
0.000000
0.000000
0.000000
0.000000
0.000000
0.000000
0.000000
0.000000
0.000000
0.000000
0.000000
0.000000
0.000000
0.000000
0.000000
0.000000
0.000000
0.000000
0.000000
0.000000
0.000000
0.000000
0.000000
0.000000
0.000000
0.000000
0.000000
0.000000
0.125000
0.065422
0.038476
0.027946
0.026475
0.025433
0.024375
0.023575
0.022941
0.022379
0.021748
0.021130
0.020520
0.020073
0.018615
0.017350
0.015952
0.013104
0.012457
0.011971
0.011472
0.010967
0.010512
0.010102
0.009692
0.009276
0.008861
0.008446
0.008111
0.000000
0.125000
0.069146
0.047994
0.036926
0.033195
0.031127
0.029541
0.028518
0.027630
0.027017
0.026505
0.026081
0.025730
0.025346
0.024236
0.021202
0.020175
0.017476
0.016266
0.015477
0.014878
0.014345
0.013891
0.013445
0.013018
0.012565
0.012092
0.011604
0.011186
0.000000
0.125000
0.069629
0.050213
0.038625
0.034173
0.032243
0.030703
0.029427
0.028607
0.028017
0.027619
0.027303
0.027058
0.026770
0.025986
0.023329
0.022353
0.019139
0.017365
0.016554
0.016064
0.015643
0.015227
0.014833
0.014426
0.014012
0.013568
0.013099
0.012686
0.000000
0.125000
0.069260
0.049689
0.038886
0.035607
0.033844
0.032102
0.030882
0.030041
0.029508
0.029079
0.028771
0.028521
0.028297
0.027922
0.025481
0.024938
0.021367
0.018994
0.018091
0.017596
0.017194
0.016822
0.016463
0.016084
0.015691
0.015280
0.014836
0.014430
0.000000
0.125000
0.069032
0.048915
0.038556
0.035853
0.034394
0.032938
0.031824
0.031038
0.030482
0.030063
0.029749
0.029471
0.029295
0.029323
0.027159
0.027039
0.023062
0.020198
0.019134
0.018617
0.018226
0.017853
0.017502
0.017134
0.016757
0.016353
0.015928
0.015524
0.000000
0.125000
0.069019
0.048613
0.038336
0.035855
0.034810
0.033656
0.032623
0.031900
0.031349
0.030941
0.030621
0.030306
0.030148
0.030476
0.028471
0.028652
0.024530
0.021315
0.020139
0.019611
0.019214
0.018832
0.018467
0.018100
0.017733
0.017341
0.016922
0.016517
0.000000
0.125000
0.068968
0.048388
0.038054
0.035658
0.034744
0.033706
0.032823
0.032138
0.031655
0.031260
0.030966
0.030695
0.030561
0.031118
0.029321
0.029708
0.025419
0.022004
0.020744
0.020167
0.019744
0.019319
0.018940
0.018553
0.018173
0.017780
0.017354
0.016944
0.000000
0.125000
0.068945
0.048388
0.038039
0.035676
0.034803
0.033833
0.033003
0.032421
0.031951
0.031599
0.031323
0.031056
0.030935
0.031585
0.029873
0.030394
0.026103
0.022619
0.021338
0.020751
0.020310
0.019878
0.019474
0.019089
0.018700
0.018305
0.017875
0.017465
0.000000
0.125000
0.068859
0.048311
0.037951
0.035518
0.034582
0.033588
0.032796
0.032255
0.031852
0.031541
0.031310
0.031086
0.031005
0.031684
0.030163
0.030595
0.026361
0.022882
0.021582
0.020940
0.020463
0.019992
0.019565
0.019140
0.018727
0.018313
0.017866
0.017436
0.000000
0.125000
0.068767
0.048333
0.037930
0.035418
0.034354
0.033227
0.032395
0.031842
0.031479
0.031206
0.031018
0.030885
0.030740
0.031392
0.030027
0.030326
0.026257
0.022917
0.021650
0.020956
0.020413
0.019918
0.019457
0.019021
0.018586
0.018158
0.017709
0.017274
0.000000
0.125000
0.068703
0.048326
0.037756
0.035007
0.033755
0.032463
0.031585
0.030954
0.030634
0.030414
0.030340
0.030326
0.030104
0.030792
0.029444
0.029566
0.025944
0.022735
0.021385
0.020563
0.019894
0.019323
0.018809
0.018336
0.017883
0.017438
0.016973
0.016531
0.000000
0.125000
0.068473
0.047836
0.037099
0.033897
0.032330
0.030878
0.029871
0.029207
0.028823
0.028633
0.028657
0.028702
0.028526
0.029374
0.028138
0.028150
0.024903
0.021893
0.020279
0.019276
0.018501
0.017871
0.017330
0.016828
0.016378
0.015931
0.015448
0.014992
0.000000
0.125000
0.068097
0.046859
0.035871
0.032318
0.030552
0.028955
0.027901
0.027127
0.026710
0.026524
0.026568
0.026659
0.026792
0.027765
0.026801
0.027257
0.023979
0.020976
0.019050
0.017788
0.016886
0.016205
0.015621
0.015132
0.014669
0.014224
0.013745
0.013278
0.000000
0.125000
0.066280
0.044008
0.032627
0.028029
0.025701
0.024051
0.023095
0.022386
0.021935
0.021528
0.021305
0.021041
0.021136
0.022025
0.023227
0.023670
0.019301
0.016408
0.014693
0.013484
0.012622
0.012010
0.011491
0.011024
0.010571
0.010138
0.009685
0.009248
0.000000
0.125000
0.047912
0.027138
0.018544
0.014694
0.012230
0.010253
0.009003
0.008238
0.007716
0.007354
0.007119
0.006970
0.006826
0.007697
0.010803
0.013037
0.009845
0.008013
0.006761
0.005805
0.005078
0.004559
0.004206
0.003935
0.003689
0.003497
0.003306
0.003107
0.000000
0.125000
0.067661
0.045603
0.031058
0.026934
0.025076
0.023661
0.022820
0.022209
0.021707
0.021146
0.020627
0.020055
0.019737
0.018628
0.019914
0.019968
0.016109
0.014102
0.013069
0.012282
0.011586
0.010973
0.010470
0.010012
0.009545
0.009094
0.008625
0.008207
0.000000
0.125000
0.069191
0.052016
0.040705
0.036318
0.033869
0.031966
0.030800
0.029940
0.029413
0.028952
0.028683
0.028456
0.027977
0.027564
0.025722
0.025569
0.023140
0.021033
0.019655
0.018572
0.017692
0.017049
0.016462
0.015934
0.015388
0.014839
0.014275
0.013755
0.000000
0.125000
0.068401
0.051554
0.041458
0.037613
0.035598
0.033909
0.032682
0.031783
0.031204
0.030817
0.030645
0.030472
0.029824
0.029566
0.027948
0.027226
0.024297
0.022115
0.020950
0.020190
0.019597
0.019043
0.018503
0.017981
0.017449
0.016921
0.016366
0.015846
0.000000
0.125000
0.067999
0.050290
0.041084
0.038629
0.037242
0.035731
0.034571
0.033732
0.033185
0.032790
0.032541
0.032336
0.031854
0.031879
0.030191
0.029770
0.026279
0.023608
0.022646
0.022130
0.021674
0.021220
0.020762
0.020278
0.019786
0.019285
0.018750
0.018248
0.000000
0.125000
0.067869
0.049221
0.040181
0.038307
0.037423
0.036304
0.035413
0.034672
0.034151
0.033720
0.033399
0.033143
0.032928
0.033282
0.031638
0.031601
0.027382
0.024263
0.023283
0.022887
0.022570
0.022236
0.021855
0.021431
0.020972
0.020492
0.019981
0.019489
0.000000
0.125000
0.067885
0.048774
0.039678
0.038008
0.037497
0.036708
0.035964
0.035352
0.034845
0.034407
0.034073
0.033789
0.033672
0.034303
0.032535
0.032806
0.028342
0.024898
0.023806
0.023446
0.023206
0.022912
0.022572
0.022184
0.021746
0.021281
0.020777
0.020284
0.000000
0.125000
0.067879
0.048603
0.039457
0.037852
0.037482
0.036786
0.036133
0.035530
0.035052
0.034609
0.034283
0.034006
0.033900
0.034678
0.032900
0.033348
0.028755
0.025174
0.024042
0.023703
0.023484
0.023206
0.022879
0.022506
0.022084
0.021632
0.021131
0.020638
0.000000
0.125000
0.067846
0.048605
0.039444
0.037815
0.037396
0.036640
0.035940
0.035345
0.034841
0.034418
0.034121
0.033867
0.033769
0.034573
0.032865
0.033278
0.028711
0.025139
0.024000
0.023627
0.023359
0.023047
0.022692
0.022297
0.021858
0.021397
0.020893
0.020396
0.000000
0.125000
0.067849
0.048952
0.039877
0.038117
0.037475
0.036469
0.035602
0.034957
0.034471
0.034053
0.033776
0.033545
0.033414
0.034073
0.032406
0.032673
0.028379
0.025013
0.023922
0.023506
0.023178
0.022808
0.022411
0.021995
0.021536
0.021060
0.020553
0.020058
0.000000
0.125000
0.067863
0.049488
0.040321
0.038056
0.036903
0.035595
0.034557
0.033784
0.033316
0.032958
0.032748
0.032596
0.032401
0.032859
0.031427
0.031404
0.027430
0.024373
0.023271
0.022695
0.022242
0.021775
0.021307
0.020832
0.020346
0.019846
0.019325
0.018826
0.000000
0.125000
0.067992
0.050832
0.041567
0.038222
0.035973
0.034279
0.033155
0.032366
0.031867
0.031565
0.031451
0.031358
0.031070
0.031331
0.029955
0.029552
0.026378
0.023735
0.022638
0.021783
0.021100
0.020531
0.020010
0.019490
0.018984
0.018482
0.017941
0.017433
0.000000
0.125000
0.068074
0.051333
0.039747
0.035586
0.033307
0.031445
0.030198
0.029477
0.028962
0.028720
0.028588
0.028585
0.028406
0.028741
0.027661
0.027228
0.024664
0.021602
0.020101
0.019161
0.018396
0.017701
0.017129
0.016609
0.016090
0.015579
0.015026
0.014499
0.000000
0.125000
0.069012
0.051620
0.037300
0.031656
0.029747
0.028210
0.027129
0.026175
0.025804
0.025390
0.025204
0.025176
0.025179
0.025568
0.025052
0.025245
0.023918
0.020379
0.017920
0.016556
0.015667
0.015000
0.014401
0.013908
0.013419
0.012909
0.012378
0.011874
0.000000
0.125000
0.047385
0.022826
0.017579
0.017007
0.015512
0.014556
0.014050
0.013806
0.013439
0.013123
0.012755
0.012460
0.012360
0.012393
0.013102
0.014842
0.010302
0.008939
0.008364
0.007653
0.007096
0.006711
0.006446
0.006167
0.005871
0.005593
0.005291
0.005004
0.000000
0.125000
0.000000
0.000000
0.000000
0.000000
0.000000
0.000000
0.000000
0.000000
0.000000
0.000000
0.000000
0.000000
0.000000
0.000000
0.000000
0.000000
0.000000
0.000000
0.000000
0.000000
0.000000
0.000000
0.000000
0.000000
0.000000
0.000000
0.000000
0.000000
0.000000
0.125000
0.069146
0.047992
0.036923
0.033205
0.031100
0.029566
0.028416
0.027587
0.027036
0.026432
0.026067
0.025736
0.025355
0.024201
0.021078
0.020017
0.017475
0.016241
0.015503
0.014873
0.014350
0.013879
0.013446
0.013023
0.012575
0.012095
0.011605
0.011182
0.000000
0.125000
0.081039
0.071131
0.058685
0.051021
0.046199
0.043372
0.041875
0.040563
0.039836
0.039318
0.039189
0.039151
0.038456
0.036259
0.024037
0.028836
0.026729
0.025454
0.024436
0.023529
0.022871
0.022351
0.021814
0.021286
0.020690
0.020046
0.019421
0.018936
0.000000
0.125000
0.084051
0.079379
0.069314
0.061223
0.055622
0.052285
0.050107
0.048704
0.047814
0.047343
0.047287
0.047166
0.046155
0.043182
0.024247
0.034937
0.032618
0.031469
0.030593
0.029761
0.029161
0.028631
0.028110
0.027536
0.026918
0.026267
0.025645
0.025175
0.000000
0.125000
0.083207
0.079000
0.071506
0.065337
0.060174
0.056570
0.054427
0.052993
0.052160
0.051620
0.051468
0.051235
0.050254
0.047492
0.024564
0.039284
0.036642
0.035324
0.034418
0.033603
0.033016
0.032521
0.032029
0.031479
0.030873
0.030257
0.029675
0.029219
0.000000
0.125000
0.082752
0.078380
0.071984
0.067025
0.062702
0.059651
0.057725
0.056360
0.055462
0.054858
0.054597
0.054251
0.053372
0.050873
0.025085
0.042882
0.040066
0.038591
0.037546
0.036718
0.036161
0.035698
0.035211
0.034679
0.034103
0.033522
0.032968
0.032526
0.000000
0.125000
0.082652
0.077892
0.071446
0.066977
0.063411
0.060960
0.059314
0.058067
0.057182
0.056623
0.056407
0.056077
0.055382
0.053205
0.025735
0.045492
0.042618
0.040958
0.039694
0.038753
0.038145
0.037658
0.037121
0.036565
0.035994
0.035424
0.034876
0.034428
0.000000
0.125000
0.082666
0.077713
0.071234
0.067009
0.063764
0.061606
0.060269
0.059125
0.058364
0.057849
0.057654
0.057337
0.056744
0.054745
0.026119
0.047308
0.044421
0.042779
0.041466
0.040450
0.039803
0.039299
0.038758
0.038193
0.037630
0.037071
0.036529
0.036078
0.000000
0.125000
0.082509
0.077349
0.070730
0.066480
0.063322
0.061312
0.060097
0.059137
0.058473
0.058073
0.057989
0.057799
0.057378
0.055589
0.026539
0.048373
0.045438
0.043755
0.042381
0.041309
0.040576
0.039993
0.039363
0.038763
0.038140
0.037547
0.036981
0.036519
0.000000
0.125000
0.082456
0.077383
0.070699
0.066363
0.063146
0.061129
0.059989
0.059144
0.058590
0.058273
0.058252
0.058121
0.057746
0.055961
0.026884
0.048880
0.046124
0.044599
0.043307
0.042246
0.041498
0.040862
0.040214
0.039581
0.038940
0.038330
0.037753
0.037288
0.000000
0.125000
0.082289
0.077098
0.070160
0.065445
0.061871
0.059584
0.058350
0.057511
0.057062
0.056880
0.057052
0.057158
0.056880
0.055270
0.026837
0.048389
0.045736
0.044362
0.043066
0.041854
0.040915
0.040154
0.039400
0.038704
0.038000
0.037348
0.036764
0.036278
0.000000
0.125000
0.082234
0.076772
0.069216
0.063886
0.059802
0.057155
0.055767
0.054804
0.054445
0.054439
0.054871
0.055198
0.055021
0.053665
0.026426
0.047103
0.044916
0.043616
0.042137
0.040674
0.039518
0.038625
0.037814
0.037074
0.036367
0.035706
0.035102
0.034618
0.000000
0.125000
0.081814
0.075557
0.067034
0.060647
0.055747
0.052698
0.051026
0.050031
0.049647
0.049810
0.050594
0.051309
0.051612
0.050747
0.025282
0.044921
0.043142
0.041617
0.039468
0.037525
0.036102
0.035081
0.034231
0.033448
0.032737
0.032074
0.031453
0.030952
0.000000
0.125000
0.080392
0.071617
0.061235
0.053805
0.048429
0.045144
0.043398
0.042268
0.041833
0.042023
0.042854
0.043905
0.045298
0.045703
0.024247
0.042018
0.039637
0.036999
0.033995
0.031716
0.030225
0.029233
0.028409