# vtk DataFile Version 3.0
LBM Simulation Data (speed_m_per_s) [FIXED_SCALING_v11]
ASCII
DATASET STRUCTURED_GRID
DIMENSIONS 30 30 30
POINTS 27000 float
0 0 0
1 0 0
2 0 0
3 0 0
4 0 0
5 0 0
6 0 0
7 0 0
8 0 0
9 0 0
10 0 0
11 0 0
12 0 0
13 0 0
14 0 0
15 0 0
16 0 0
17 0 0
18 0 0
19 0 0
20 0 0
21 0 0
22 0 0
23 0 0
24 0 0
25 0 0
26 0 0
27 0 0
28 0 0
29 0 0
0 1 0
1 1 0
2 1 0
3 1 0
4 1 0
5 1 0
6 1 0
7 1 0
8 1 0
9 1 0
10 1 0
11 1 0
12 1 0
13 1 0
14 1 0
15 1 0
16 1 0
17 1 0
18 1 0
19 1 0
20 1 0
21 1 0
22 1 0
23 1 0
24 1 0
25 1 0
26 1 0
27 1 0
28 1 0
29 1 0
0 2 0
1 2 0
2 2 0
3 2 0
4 2 0
5 2 0
6 2 0
7 2 0
8 2 0
9 2 0
10 2 0
11 2 0
12 2 0
13 2 0
14 2 0
15 2 0
16 2 0
17 2 0
18 2 0
19 2 0
20 2 0
21 2 0
22 2 0
23 2 0
24 2 0
25 2 0
26 2 0
27 2 0
28 2 0
29 2 0
0 3 0
1 3 0
2 3 0
3 3 0
4 3 0
5 3 0
6 3 0
7 3 0
8 3 0
9 3 0
10 3 0
11 3 0
12 3 0
13 3 0
14 3 0
15 3 0
16 3 0
17 3 0
18 3 0
19 3 0
20 3 0
21 3 0
22 3 0
23 3 0
24 3 0
25 3 0
26 3 0
27 3 0
28 3 0
29 3 0
0 4 0
1 4 0
2 4 0
3 4 0
4 4 0
5 4 0
6 4 0
7 4 0
8 4 0
9 4 0
10 4 0
11 4 0
12 4 0
13 4 0
14 4 0
15 4 0
16 4 0
17 4 0
18 4 0
19 4 0
20 4 0
21 4 0
22 4 0
23 4 0
24 4 0
25 4 0
26 4 0
27 4 0
28 4 0
29 4 0
0 5 0
1 5 0
2 5 0
3 5 0
4 5 0
5 5 0
6 5 0
7 5 0
8 5 0
9 5 0
10 5 0
11 5 0
12 5 0
13 5 0
14 5 0
15 5 0
16 5 0
17 5 0
18 5 0
19 5 0
20 5 0
21 5 0
22 5 0
23 5 0
24 5 0
25 5 0
26 5 0
27 5 0
28 5 0
29 5 0
0 6 0
1 6 0
2 6 0
3 6 0
4 6 0
5 6 0
6 6 0
7 6 0
8 6 0
9 6 0
10 6 0
11 6 0
12 6 0
13 6 0
14 6 0
15 6 0
16 6 0
17 6 0
18 6 0
19 6 0
20 6 0
21 6 0
22 6 0
23 6 0
24 6 0
25 6 0
26 6 0
27 6 0
28 6 0
29 6 0
0 7 0
1 7 0
2 7 0
3 7 0
4 7 0
5 7 0
6 7 0
7 7 0
8 7 0
9 7 0
10 7 0
11 7 0
12 7 0
13 7 0
14 7 0
15 7 0
16 7 0
17 7 0
18 7 0
19 7 0
20 7 0
21 7 0
22 7 0
23 7 0
24 7 0
25 7 0
26 7 0
27 7 0
28 7 0
29 7 0
0 8 0
1 8 0
2 8 0
3 8 0
4 8 0
5 8 0
6 8 0
7 8 0
8 8 0
9 8 0
10 8 0
11 8 0
12 8 0
13 8 0
14 8 0
15 8 0
16 8 0
17 8 0
18 8 0
19 8 0
20 8 0
21 8 0
22 8 0
23 8 0
24 8 0
25 8 0
26 8 0
27 8 0
28 8 0
29 8 0
0 9 0
1 9 0
2 9 0
3 9 0
4 9 0
5 9 0
6 9 0
7 9 0
8 9 0
9 9 0
10 9 0
11 9 0
12 9 0
13 9 0
14 9 0
15 9 0
16 9 0
17 9 0
18 9 0
19 9 0
20 9 0
21 9 0
22 9 0
23 9 0
24 9 0
25 9 0
26 9 0
27 9 0
28 9 0
29 9 0
0 10 0
1 10 0
2 10 0
3 10 0
4 10 0
5 10 0
6 10 0
7 10 0
8 10 0
9 10 0
10 10 0
11 10 0
12 10 0
13 10 0
14 10 0
15 10 0
16 10 0
17 10 0
18 10 0
19 10 0
20 10 0
21 10 0
22 10 0
23 10 0
24 10 0
25 10 0
26 10 0
27 10 0
28 10 0
29 10 0
0 11 0
1 11 0
2 11 0
3 11 0
4 11 0
5 11 0
6 11 0
7 11 0
8 11 0
9 11 0
10 11 0
11 11 0
12 11 0
13 11 0
14 11 0
15 11 0
16 11 0
17 11 0
18 11 0
19 11 0
20 11 0
21 11 0
22 11 0
23 11 0
24 11 0
25 11 0
26 11 0
27 11 0
28 11 0
29 11 0
0 12 0
1 12 0
2 12 0
3 12 0
4 12 0
5 12 0
6 12 0
7 12 0
8 12 0
9 12 0
10 12 0
11 12 0
12 12 0
13 12 0
14 12 0
15 12 0
16 12 0
17 12 0
18 12 0
19 12 0
20 12 0
21 12 0
22 12 0
23 12 0
24 12 0
25 12 0
26 12 0
27 12 0
28 12 0
29 12 0
0 13 0
1 13 0
2 13 0
3 13 0
4 13 0
5 13 0
6 13 0
7 13 0
8 13 0
9 13 0
10 13 0
11 13 0
12 13 0
13 13 0
14 13 0
15 13 0
16 13 0
17 13 0
18 13 0
19 13 0
20 13 0
21 13 0
22 13 0
23 13 0
24 13 0
25 13 0
26 13 0
27 13 0
28 13 0
29 13 0
0 14 0
1 14 0
2 14 0
3 14 0
4 14 0
5 14 0
6 14 0
7 14 0
8 14 0
9 14 0
10 14 0
11 14 0
12 14 0
13 14 0
14 14 0
15 14 0
16 14 0
17 14 0
18 14 0
19 14 0
20 14 0
21 14 0
22 14 0
23 14 0
24 14 0
25 14 0
26 14 0
27 14 0
28 14 0
29 14 0
0 15 0
1 15 0
2 15 0
3 15 0
4 15 0
5 15 0
6 15 0
7 15 0
8 15 0
9 15 0
10 15 0
11 15 0
12 15 0
13 15 0
14 15 0
15 15 0
16 15 0
17 15 0
18 15 0
19 15 0
20 15 0
21 15 0
22 15 0
23 15 0
24 15 0
25 15 0
26 15 0
27 15 0
28 15 0
29 15 0
0 16 0
1 16 0
2 16 0
3 16 0
4 16 0
5 16 0
6 16 0
7 16 0
8 16 0
9 16 0
10 16 0
11 16 0
12 16 0
13 16 0
14 16 0
15 16 0
16 16 0
17 16 0
18 16 0
19 16 0
20 16 0
21 16 0
22 16 0
23 16 0
24 16 0
25 16 0
26 16 0
27 16 0
28 16 0
29 16 0
0 17 0
1 17 0
2 17 0
3 17 0
4 17 0
5 17 0
6 17 0
7 17 0
8 17 0
9 17 0
10 17 0
11 17 0
12 17 0
13 17 0
14 17 0
15 17 0
16 17 0
17 17 0
18 17 0
19 17 0
20 17 0
21 17 0
22 17 0
23 17 0
24 17 0
25 17 0
26 17 0
27 17 0
28 17 0
29 17 0
0 18 0
1 18 0
2 18 0
3 18 0
4 18 0
5 18 0
6 18 0
7 18 0
8 18 0
9 18 0
10 18 0
11 18 0
12 18 0
13 18 0
14 18 0
15 18 0
16 18 0
17 18 0
18 18 0
19 18 0
20 18 0
21 18 0
22 18 0
23 18 0
24 18 0
25 18 0
26 18 0
27 18 0
28 18 0
29 18 0
0 19 0
1 19 0
2 19 0
3 19 0
4 19 0
5 19 0
6 19 0
7 19 0
8 19 0
9 19 0
10 19 0
11 19 0
12 19 0
13 19 0
14 19 0
15 19 0
16 19 0
17 19 0
18 19 0
19 19 0
20 19 0
21 19 0
22 19 0
23 19 0
24 19 0
25 19 0
26 19 0
27 19 0
28 19 0
29 19 0
0 20 0
1 20 0
2 20 0
3 20 0
4 20 0
5 20 0
6 20 0
7 20 0
8 20 0
9 20 0
10 20 0
11 20 0
12 20 0
13 20 0
14 20 0
15 20 0
16 20 0
17 20 0
18 20 0
19 20 0
20 20 0
21 20 0
22 20 0
23 20 0
24 20 0
25 20 0
26 20 0
27 20 0
28 20 0
29 20 0
0 21 0
1 21 0
2 21 0
3 21 0
4 21 0
5 21 0
6 21 0
7 21 0
8 21 0
9 21 0
10 21 0
11 21 0
12 21 0
13 21 0
14 21 0
15 21 0
16 21 0
17 21 0
18 21 0
19 21 0
20 21 0
21 21 0
22 21 0
23 21 0
24 21 0
25 21 0
26 21 0
27 21 0
28 21 0
29 21 0
0 22 0
1 22 0
2 22 0
3 22 0
4 22 0
5 22 0
6 22 0
7 22 0
8 22 0
9 22 0
10 22 0
11 22 0
12 22 0
13 22 0
14 22 0
15 22 0
16 22 0
17 22 0
18 22 0
19 22 0
20 22 0
21 22 0
22 22 0
23 22 0
24 22 0
25 22 0
26 22 0
27 22 0
28 22 0
29 22 0
0 23 0
1 23 0
2 23 0
3 23 0
4 23 0
5 23 0
6 23 0
7 23 0
8 23 0
9 23 0
10 23 0
11 23 0
12 23 0
13 23 0
14 23 0
15 23 0
16 23 0
17 23 0
18 23 0
19 23 0
20 23 0
21 23 0
22 23 0
23 23 0
24 23 0
25 23 0
26 23 0
27 23 0
28 23 0
29 23 0
0 24 0
1 24 0
2 24 0
3 24 0
4 24 0
5 24 0
6 24 0
7 24 0
8 24 0
9 24 0
10 24 0
11 24 0
12 24 0
13 24 0
14 24 0
15 24 0
16 24 0
17 24 0
18 24 0
19 24 0
20 24 0
21 24 0
22 24 0
23 24 0
24 24 0
25 24 0
26 24 0
27 24 0
28 24 0
29 24 0
0 25 0
1 25 0
2 25 0
3 25 0
4 25 0
5 25 0
6 25 0
7 25 0
8 25 0
9 25 0
10 25 0
11 25 0
12 25 0
13 25 0
14 25 0
15 25 0
16 25 0
17 25 0
18 25 0
19 25 0
20 25 0
21 25 0
22 25 0
23 25 0
24 25 0
25 25 0
26 25 0
27 25 0
28 25 0
29 25 0
0 26 0
1 26 0
2 26 0
3 26 0
4 26 0
5 26 0
6 26 0
7 26 0
8 26 0
9 26 0
10 26 0
11 26 0
12 26 0
13 26 0
14 26 0
15 26 0
16 26 0
17 26 0
18 26 0
19 26 0
20 26 0
21 26 0
22 26 0
23 26 0
24 26 0
25 26 0
26 26 0
27 26 0
28 26 0
29 26 0
0 27 0
1 27 0
2 27 0
3 27 0
4 27 0
5 27 0
6 27 0
7 27 0
8 27 0
9 27 0
10 27 0
11 27 0
12 27 0
13 27 0
14 27 0
15 27 0
16 27 0
17 27 0
18 27 0
19 27 0
20 27 0
21 27 0
22 27 0
23 27 0
24 27 0
25 27 0
26 27 0
27 27 0
28 27 0
29 27 0
0 28 0
1 28 0
2 28 0
3 28 0
4 28 0
5 28 0
6 28 0
7 28 0
8 28 0
9 28 0
10 28 0
11 28 0
12 28 0
13 28 0
14 28 0
15 28 0
16 28 0
17 28 0
18 28 0
19 28 0
20 28 0
21 28 0
22 28 0
23 28 0
24 28 0
25 28 0
26 28 0
27 28 0
28 28 0
29 28 0
0 29 0
1 29 0
2 29 0
3 29 0
4 29 0
5 29 0
6 29 0
7 29 0
8 29 0
9 29 0
10 29 0
11 29 0
12 29 0
13 29 0
14 29 0
15 29 0
16 29 0
17 29 0
18 29 0
19 29 0
20 29 0
21 29 0
22 29 0
23 29 0
24 29 0
25 29 0
26 29 0
27 29 0
28 29 0
29 29 0
0 0 1
1 0 1
2 0 1
3 0 1
4 0 1
5 0 1
6 0 1
7 0 1
8 0 1
9 0 1
10 0 1
11 0 1
12 0 1
13 0 1
14 0 1
15 0 1
16 0 1
17 0 1
18 0 1
19 0 1
20 0 1
21 0 1
22 0 1
23 0 1
24 0 1
25 0 1
26 0 1
27 0 1
28 0 1
29 0 1
0 1 1
1 1 1
2 1 1
3 1 1
4 1 1
5 1 1
6 1 1
7 1 1
8 1 1
9 1 1
10 1 1
11 1 1
12 1 1
13 1 1
14 1 1
15 1 1
16 1 1
17 1 1
18 1 1
19 1 1
20 1 1
21 1 1
22 1 1
23 1 1
24 1 1
25 1 1
26 1 1
27 1 1
28 1 1
29 1 1
0 2 1
1 2 1
2 2 1
3 2 1
4 2 1
5 2 1
6 2 1
7 2 1
8 2 1
9 2 1
10 2 1
11 2 1
12 2 1
13 2 1
14 2 1
15 2 1
16 2 1
17 2 1
18 2 1
19 2 1
20 2 1
21 2 1
22 2 1
23 2 1
24 2 1
25 2 1
26 2 1
27 2 1
28 2 1
29 2 1
0 3 1
1 3 1
2 3 1
3 3 1
4 3 1
5 3 1
6 3 1
7 3 1
8 3 1
9 3 1
10 3 1
11 3 1
12 3 1
13 3 1
14 3 1
15 3 1
16 3 1
17 3 1
18 3 1
19 3 1
20 3 1
21 3 1
22 3 1
23 3 1
24 3 1
25 3 1
26 3 1
27 3 1
28 3 1
29 3 1
0 4 1
1 4 1
2 4 1
3 4 1
4 4 1
5 4 1
6 4 1
7 4 1
8 4 1
9 4 1
10 4 1
11 4 1
12 4 1
13 4 1
14 4 1
15 4 1
16 4 1
17 4 1
18 4 1
19 4 1
20 4 1
21 4 1
22 4 1
23 4 1
24 4 1
25 4 1
26 4 1
27 4 1
28 4 1
29 4 1
0 5 1
1 5 1
2 5 1
3 5 1
4 5 1
5 5 1
6 5 1
7 5 1
8 5 1
9 5 1
10 5 1
11 5 1
12 5 1
13 5 1
14 5 1
15 5 1
16 5 1
17 5 1
18 5 1
19 5 1
20 5 1
21 5 1
22 5 1
23 5 1
24 5 1
25 5 1
26 5 1
27 5 1
28 5 1
29 5 1
0 6 1
1 6 1
2 6 1
3 6 1
4 6 1
5 6 1
6 6 1
7 6 1
8 6 1
9 6 1
10 6 1
11 6 1
12 6 1
13 6 1
14 6 1
15 6 1
16 6 1
17 6 1
18 6 1
19 6 1
20 6 1
21 6 1
22 6 1
23 6 1
24 6 1
25 6 1
26 6 1
27 6 1
28 6 1
29 6 1
0 7 1
1 7 1
2 7 1
3 7 1
4 7 1
5 7 1
6 7 1
7 7 1
8 7 1
9 7 1
10 7 1
11 7 1
12 7 1
13 7 1
14 7 1
15 7 1
16 7 1
17 7 1
18 7 1
19 7 1
20 7 1
21 7 1
22 7 1
23 7 1
24 7 1
25 7 1
26 7 1
27 7 1
28 7 1
29 7 1
0 8 1
1 8 1
2 8 1
3 8 1
4 8 1
5 8 1
6 8 1
7 8 1
8 8 1
9 8 1
10 8 1
11 8 1
12 8 1
13 8 1
14 8 1
15 8 1
16 8 1
17 8 1
18 8 1
19 8 1
20 8 1
21 8 1
22 8 1
23 8 1
24 8 1
25 8 1
26 8 1
27 8 1
28 8 1
29 8 1
0 9 1
1 9 1
2 9 1
3 9 1
4 9 1
5 9 1
6 9 1
7 9 1
8 9 1
9 9 1
10 9 1
11 9 1
12 9 1
13 9 1
14 9 1
15 9 1
16 9 1
17 9 1
18 9 1
19 9 1
20 9 1
21 9 1
22 9 1
23 9 1
24 9 1
25 9 1
26 9 1
27 9 1
28 9 1
29 9 1
0 10 1
1 10 1
2 10 1
3 10 1
4 10 1
5 10 1
6 10 1
7 10 1
8 10 1
9 10 1
10 10 1
11 10 1
12 10 1
13 10 1
14 10 1
15 10 1
16 10 1
17 10 1
18 10 1
19 10 1
20 10 1
21 10 1
22 10 1
23 10 1
24 10 1
25 10 1
26 10 1
27 10 1
28 10 1
29 10 1
0 11 1
1 11 1
2 11 1
3 11 1
4 11 1
5 11 1
6 11 1
7 11 1
8 11 1
9 11 1
10 11 1
11 11 1
12 11 1
13 11 1
14 11 1
15 11 1
16 11 1
17 11 1
18 11 1
19 11 1
20 11 1
21 11 1
22 11 1
23 11 1
24 11 1
25 11 1
26 11 1
27 11 1
28 11 1
29 11 1
0 12 1
1 12 1
2 12 1
3 12 1
4 12 1
5 12 1
6 12 1
7 12 1
8 12 1
9 12 1
10 12 1
11 12 1
12 12 1
13 12 1
14 12 1
15 12 1
16 12 1
17 12 1
18 12 1
19 12 1
20 12 1
21 12 1
22 12 1
23 12 1
24 12 1
25 12 1
26 12 1
27 12 1
28 12 1
29 12 1
0 13 1
1 13 1
2 13 1
3 13 1
4 13 1
5 13 1
6 13 1
7 13 1
8 13 1
9 13 1
10 13 1
11 13 1
12 13 1
13 13 1
14 13 1
15 13 1
16 13 1
17 13 1
18 13 1
19 13 1
20 13 1
21 13 1
22 13 1
23 13 1
24 13 1
25 13 1
26 13 1
27 13 1
28 13 1
29 13 1
0 14 1
1 14 1
2 14 1
3 14 1
4 14 1
5 14 1
6 14 1
7 14 1
8 14 1
9 14 1
10 14 1
11 14 1
12 14 1
13 14 1
14 14 1
15 14 1
16 14 1
17 14 1
18 14 1
19 14 1
20 14 1
21 14 1
22 14 1
23 14 1
24 14 1
25 14 1
26 14 1
27 14 1
28 14 1
29 14 1
0 15 1
1 15 1
2 15 1
3 15 1
4 15 1
5 15 1
6 15 1
7 15 1
8 15 1
9 15 1
10 15 1
11 15 1
12 15 1
[...]
POINT_DATA 27000
SCALARS speed_m_per_s float 1
LOOKUP_TABLE default
0.125000
0.000000
0.000000
0.000000
0.000000
0.000000
0.000000
0.000000
0.000000
0.000000
0.000000
0.000000
0.000000
0.000000
0.000000
0.000000
0.000000
0.000000
0.000000
0.000000
0.000000
0.000000
0.000000
0.000000
0.000000
0.000000
0.000000
0.000000
0.000000
0.000000
0.125000
0.000000
0.000000
0.000000
0.000000
0.000000
0.000000
0.000000
0.000000
0.000000
0.000000
0.000000
0.000000
0.000000
0.000000
0.000000
0.000000
0.000000
0.000000
0.000000
0.000000
0.000000
0.000000
0.000000
0.000000
0.000000
0.000000
0.000000
0.000000
0.000000
0.125000
0.000000
0.000000
0.000000
0.000000
0.000000
0.000000
0.000000
0.000000
0.000000
0.000000
0.000000
0.000000
0.000000
0.000000
0.000000
0.000000
0.000000
0.000000
0.000000
0.000000
0.000000
0.000000
0.000000
0.000000
0.000000
0.000000
0.000000
0.000000
0.000000
0.125000
0.000000
0.000000
0.000000
0.000000
0.000000
0.000000
0.000000
0.000000
0.000000
0.000000
0.000000
0.000000
0.000000
0.000000
0.000000
0.000000
0.000000
0.000000
0.000000
0.000000
0.000000
0.000000
0.000000
0.000000
0.000000
0.000000
0.000000
0.000000
0.000000
0.125000
0.000000
0.000000
0.000000
0.000000
0.000000
0.000000
0.000000
0.000000
0.000000
0.000000
0.000000
0.000000
0.000000
0.000000
0.000000
0.000000
0.000000
0.000000
0.000000
0.000000
0.000000
0.000000
0.000000
0.000000
0.000000
0.000000
0.000000
0.000000
0.000000
0.125000
0.000000
0.000000
0.000000
0.000000
0.000000
0.000000
0.000000
0.000000
0.000000
0.000000
0.000000
0.000000
0.000000
0.000000
0.000000
0.000000
0.000000
0.000000
0.000000
0.000000
0.000000
0.000000
0.000000
0.000000
0.000000
0.000000
0.000000
0.000000
0.000000
0.125000
0.000000
0.000000
0.000000
0.000000
0.000000
0.000000
0.000000
0.000000
0.000000
0.000000
0.000000
0.000000
0.000000
0.000000
0.000000
0.000000
0.000000
0.000000
0.000000
0.000000
0.000000
0.000000
0.000000
0.000000
0.000000
0.000000
0.000000
0.000000
0.000000
0.125000
0.000000
0.000000
0.000000
0.000000
0.000000
0.000000
0.000000
0.000000
0.000000
0.000000
0.000000
0.000000
0.000000
0.000000
0.000000
0.000000
0.000000
0.000000
0.000000
0.000000
0.000000
0.000000
0.000000
0.000000
0.000000
0.000000
0.000000
0.000000
0.000000
0.125000
0.000000
0.000000
0.000000
0.000000
0.000000
0.000000
0.000000
0.000000
0.000000
0.000000
0.000000
0.000000
0.000000
0.000000
0.000000
0.000000
0.000000
0.000000
0.000000
0.000000
0.000000
0.000000
0.000000
0.000000
0.000000
0.000000
0.000000
0.000000
0.000000
0.125000
0.000000
0.000000
0.000000
0.000000
0.000000
0.000000
0.000000
0.000000
0.000000
0.000000
0.000000
0.000000
0.000000
0.000000
0.000000
0.000000
0.000000
0.000000
0.000000
0.000000
0.000000
0.000000
0.000000
0.000000
0.000000
0.000000
0.000000
0.000000
0.000000
0.125000
0.000000
0.000000
0.000000
0.000000
0.000000
0.000000
0.000000
0.000000
0.000000
0.000000
0.000000
0.000000
0.000000
0.000000
0.000000
0.000000
0.000000
0.000000
0.000000
0.000000
0.000000
0.000000
0.000000
0.000000
0.000000
0.000000
0.000000
0.000000
0.000000
0.125000
0.000000
0.000000
0.000000
0.000000
0.000000
0.000000
0.000000
0.000000
0.000000
0.000000
0.000000
0.000000
0.000000
0.000000
0.000000
0.000000
0.000000
0.000000
0.000000
0.000000
0.000000
0.000000
0.000000
0.000000
0.000000
0.000000
0.000000
0.000000
0.000000
0.125000
0.000000
0.000000
0.000000
0.000000
0.000000
0.000000
0.000000
0.000000
0.000000
0.000000
0.000000
0.000000
0.000000
0.000000
0.000000
0.000000
0.000000
0.000000
0.000000
0.000000
0.000000
0.000000
0.000000
0.000000
0.000000
0.000000
0.000000
0.000000
0.000000
0.125000
0.000000
0.000000
0.000000
0.000000
0.000000
0.000000
0.000000
0.000000
0.000000
0.000000
0.000000
0.000000
0.000000
0.000000
0.000000
0.000000
0.000000
0.000000
0.000000
0.000000
0.000000
0.000000
0.000000
0.000000
0.000000
0.000000
0.000000
0.000000
0.000000
0.125000
0.000000
0.000000
0.000000
0.000000
0.000000
0.000000
0.000000
0.000000
0.000000
0.000000
0.000000
0.000000
0.000000
0.000000
0.000000
0.000000
0.000000
0.000000
0.000000
0.000000
0.000000
0.000000
0.000000
0.000000
0.000000
0.000000
0.000000
0.000000
0.000000
0.125000
0.000000
0.000000
0.000000
0.000000
0.000000
0.000000
0.000000
0.000000
0.000000
0.000000
0.000000
0.000000
0.000000
0.000000
0.000000
0.000000
0.000000
0.000000
0.000000
0.000000
0.000000
0.000000
0.000000
0.000000
0.000000
0.000000
0.000000
0.000000
0.000000
0.125000
0.000000
0.000000
0.000000
0.000000
0.000000
0.000000
0.000000
0.000000
0.000000
0.000000
0.000000
0.000000
0.000000
0.000000
0.000000
0.000000
0.000000
0.000000
0.000000
0.000000
0.000000
0.000000
0.000000
0.000000
0.000000
0.000000
0.000000
0.000000
0.000000
0.125000
0.000000
0.000000
0.000000
0.000000
0.000000
0.000000
0.000000
0.000000
0.000000
0.000000
0.000000
0.000000
0.000000
0.000000
0.000000
0.000000
0.000000
0.000000
0.000000
0.000000
0.000000
0.000000
0.000000
0.000000
0.000000
0.000000
0.000000
0.000000
0.000000
0.125000
0.000000
0.000000
0.000000
0.000000
0.000000
0.000000
0.000000
0.000000
0.000000
0.000000
0.000000
0.000000
0.000000
0.000000
0.000000
0.000000
0.000000
0.000000
0.000000
0.000000
0.000000
0.000000
0.000000
0.000000
0.000000
0.000000
0.000000
0.000000
0.000000
0.125000
0.000000
0.000000
0.000000
0.000000
0.000000
0.000000
0.000000
0.000000
0.000000
0.000000
0.000000
0.000000
0.000000
0.000000
0.000000
0.000000
0.000000
0.000000
0.000000
0.000000
0.000000
0.000000
0.000000
0.000000
0.000000
0.000000
0.000000
0.000000
0.000000
0.125000
0.000000
0.000000
0.000000
0.000000
0.000000
0.000000
0.000000
0.000000
0.000000
0.000000
0.000000
0.000000
0.000000
0.000000
0.000000
0.000000
0.000000
0.000000
0.000000
0.000000
0.000000
0.000000
0.000000
0.000000
0.000000
0.000000
0.000000
0.000000
0.000000
0.125000
0.000000
0.000000
0.000000
0.000000
0.000000
0.000000
0.000000
0.000000
0.000000
0.000000
0.000000
0.000000
0.000000
0.000000
0.000000
0.000000
0.000000
0.000000
0.000000
0.000000
0.000000
0.000000
0.000000
0.000000
0.000000
0.000000
0.000000
0.000000
0.000000
0.125000
0.000000
0.000000
0.000000
0.000000
0.000000
0.000000
0.000000
0.000000
0.000000
0.000000
0.000000
0.000000
0.000000
0.000000
0.000000
0.000000
0.000000
0.000000
0.000000
0.000000
0.000000
0.000000
0.000000
0.000000
0.000000
0.000000
0.000000
0.000000
0.000000
0.125000
0.000000
0.000000
0.000000
0.000000
0.000000
0.000000
0.000000
0.000000
0.000000
0.000000
0.000000
0.000000
0.000000
0.000000
0.000000
0.000000
0.000000
0.000000
0.000000
0.000000
0.000000
0.000000
0.000000
0.000000
0.000000
0.000000
0.000000
0.000000
0.000000
0.125000
0.000000
0.000000
0.000000
0.000000
0.000000
0.000000
0.000000
0.000000
0.000000
0.000000
0.000000
0.000000
0.000000
0.000000
0.000000
0.000000
0.000000
0.000000
0.000000
0.000000
0.000000
0.000000
0.000000
0.000000
0.000000
0.000000
0.000000
0.000000
0.000000
0.125000
0.000000
0.000000
0.000000
0.000000
0.000000
0.000000
0.000000
0.000000
0.000000
0.000000
0.000000
0.000000
0.000000
0.000000
0.000000
0.000000
0.000000
0.000000
0.000000
0.000000
0.000000
0.000000
0.000000
0.000000
0.000000
0.000000
0.000000
0.000000
0.000000
0.125000
0.000000
0.000000
0.000000
0.000000
0.000000
0.000000
0.000000
0.000000
0.000000
0.000000
0.000000
0.000000
0.000000
0.000000
0.000000
0.000000
0.000000
0.000000
0.000000
0.000000
0.000000
0.000000
0.000000
0.000000
0.000000
0.000000
0.000000
0.000000
0.000000
0.125000
0.000000
0.000000
0.000000
0.000000
0.000000
0.000000
0.000000
0.000000
0.000000
0.000000
0.000000
0.000000
0.000000
0.000000
0.000000
0.000000
0.000000
0.000000
0.000000
0.000000
0.000000
0.000000
0.000000
0.000000
0.000000
0.000000
0.000000
0.000000
0.000000
0.125000
0.000000
0.000000
0.000000
0.000000
0.000000
0.000000
0.000000
0.000000
0.000000
0.000000
0.000000
0.000000
0.000000
0.000000
0.000000
0.000000
0.000000
0.000000
0.000000
0.000000
0.000000
0.000000
0.000000
0.000000
0.000000
0.000000
0.000000
0.000000
0.000000
0.125000
0.000000
0.000000
0.000000
0.000000
0.000000
0.000000
0.000000
0.000000
0.000000
0.000000
0.000000
0.000000
0.000000
0.000000
0.000000
0.000000
0.000000
0.000000
0.000000
0.000000
0.000000
0.000000
0.000000
0.000000
0.000000
0.000000
0.000000
0.000000
0.000000
0.125000
0.000000
0.000000
0.000000
0.000000
0.000000
0.000000
0.000000
0.000000
0.000000
0.000000
0.000000
0.000000
0.000000
0.000000
0.000000
0.000000
0.000000
0.000000
0.000000
0.000000
0.000000
0.000000
0.000000
0.000000
0.000000
0.000000
0.000000
0.000000
0.000000
0.125000
0.065426
0.038472
0.027931
0.026457
0.025416
0.024355
0.023555
0.022921
0.022361
0.021729
0.021110
0.020501
0.020057
0.018600
0.017343
0.015943
0.013091
0.012440
0.011956
0.011457
0.010950
0.010495
0.010085
0.009674
0.009259
0.008845
0.008429
0.008095
0.000000
0.125000
0.069153
0.047995
0.036918
0.033181
0.031111
0.029524
0.028499
0.027613
0.026997
0.026484
0.026062
0.025711
0.025328
0.024223
0.021195
0.020169
0.017469
0.016256
0.015464
0.014865
0.014333
0.013877
0.013431
0.013004
0.012551
0.012078
0.011591
0.011174
0.000000
0.125000
0.069638
0.050215
0.038621
0.034164
0.032231
0.030689
0.029412
0.028591
0.028000
0.027602
0.027287
0.027042
0.026756
0.025974
0.023324
0.022350
0.019137
0.017356
0.016547
0.016053
0.015632
0.015216
0.014822
0.014414
0.014001
0.013556
0.013089
0.012675
0.000000
0.125000
0.069269
0.049693
0.038883
0.035600
0.033834
0.032091
0.030868
0.030027
0.029493
0.029065
0.028756
0.028508
0.028285
0.027913
0.025475
0.024936
0.021365
0.018989
0.018083
0.017588
0.017186
0.016814
0.016455
0.016076
0.015684
0.015273
0.014830
0.014423
0.000000
0.125000
0.069041
0.048918
0.038552
0.035847
0.034383
0.032928
0.031812
0.031023
0.030467
0.030050
0.029736
0.029458
0.029284
0.029316
0.027152
0.027038
0.023062
0.020194
0.019129
0.018612
0.018220
0.017847
0.017494
0.017126
0.016749
0.016346
0.015921
0.015519
0.000000
0.125000
0.069028
0.048617
0.038333
0.035850
0.034802
0.033648
0.032611
0.031890
0.031336
0.030927
0.030609
0.030296
0.030139
0.030472
0.028467
0.028652
0.024528
0.021312
0.020133
0.019605
0.019208
0.018827
0.018460
0.018096
0.017726
0.017336
0.016917
0.016513
0.000000
0.125000
0.068976
0.048391
0.038051
0.035651
0.034737
0.033696
0.032813
0.032126
0.031644
0.031248
0.030955
0.030684
0.030552
0.031114
0.029316
0.029710
0.025419
0.022001
0.020740
0.020162
0.019738
0.019314
0.018934
0.018547
0.018169
0.017775
0.017350
0.016940
0.000000
0.125000
0.068953
0.048390
0.038036
0.035670
0.034794
0.033825
0.032992
0.032410
0.031941
0.031588
0.031314
0.031047
0.030928
0.031581
0.029868
0.030394
0.026102
0.022616
0.021333
0.020746
0.020305
0.019873
0.019470
0.019087
0.018698
0.018303
0.017873
0.017463
0.000000
0.125000
0.068868
0.048314
0.037948
0.035512
0.034572
0.033577
0.032784
0.032244
0.031841
0.031532
0.031302
0.031079
0.030999
0.031680
0.030158
0.030597
0.026362
0.022878
0.021577
0.020935
0.020458
0.019984
0.019561
0.019135
0.018722
0.018310
0.017863
0.017433
0.000000
0.125000
0.068775
0.048336
0.037927
0.035410
0.034345
0.033217
0.032384
0.031833
0.031468
0.031196
0.031010
0.030877
0.030732
0.031388
0.030023
0.030326
0.026256
0.022915
0.021646
0.020950
0.020408
0.019913
0.019454
0.019019
0.018583
0.018155
0.017706
0.017271
0.000000
0.125000
0.068711
0.048330
0.037751
0.034999
0.033746
0.032454
0.031572
0.030943
0.030623
0.030406
0.030331
0.030318
0.030098
0.030788
0.029439
0.029567
0.025945
0.022733
0.021379
0.020558
0.019889
0.019316
0.018803
0.018331
0.017877
0.017433
0.016970
0.016529
0.000000
0.125000
0.068479
0.047837
0.037095
0.033890
0.032321
0.030868
0.029858
0.029199
0.028812
0.028623
0.028648
0.028693
0.028520
0.029368
0.028134
0.028149
0.024901
0.021890
0.020275
0.019270
0.018496
0.017864
0.017324
0.016823
0.016373
0.015927
0.015445
0.014989
0.000000
0.125000
0.068105
0.046859
0.035865
0.032310
0.030541
0.028942
0.027891
0.027115
0.026697
0.026514
0.026561
0.026651
0.026786
0.027759
0.026797
0.027258
0.023976
0.020972
0.019043
0.017782
0.016879
0.016199
0.015614
0.015126
0.014662
0.014218
0.013738
0.013271
0.000000
0.125000
0.066286
0.044007
0.032617
0.028020
0.025690
0.024038
0.023082
0.022372
0.021922
0.021517
0.021295
0.021030
0.021127
0.022017
0.023223
0.023668
0.019298
0.016400
0.014684
0.013475
0.012614
0.012003
0.011484
0.011016
0.010563
0.010131
0.009677
0.009241
0.000000
0.125000
0.047912
0.027136
0.018542
0.014693
0.012230
0.010254
0.009003
0.008238
0.007716
0.007355
0.007119
0.006970
0.006825
0.007696
0.010803
0.013037
0.009843
0.008013
0.006759
0.005805
0.005079
0.004558
0.004208
0.003934
0.003690
0.003496
0.003306
0.003107
0.000000
0.125000
0.067667
0.045603
0.031050
0.026924
0.025061
0.023646
0.022804
0.022193
0.021692
0.021130
0.020615
0.020041
0.019725
0.018618
0.019910
0.019965
0.016104
0.014094
0.013059
0.012270
0.011572
0.010960
0.010457
0.010000
0.009535
0.009083
0.008614
0.008197
0.000000
0.125000
0.069199
0.052019
0.040700
0.036308
0.033855
0.031951
0.030783
0.029924
0.029396
0.028936
0.028668
0.028442
0.027965
0.027556
0.025719
0.025571
0.023141
0.021030
0.019649
0.018563
0.017683
0.017039
0.016453
0.015922
0.015379
0.014829
0.014268
0.013749
0.000000
0.125000
0.068412
0.051556
0.041454
0.037605
0.035588
0.033896
0.032667
0.031769
0.031191
0.030806
0.030635
0.030463
0.029815
0.029561
0.027947
0.027228
0.024300
0.022115
0.020946
0.020188
0.019592
0.019036
0.018498
0.017974
0.017443
0.016918
0.016361
0.015842
0.000000
0.125000
0.068006
0.050292
0.041082
0.038622
0.037235
0.035721
0.034558
0.033722
0.033176
0.032780
0.032531
0.032328
0.031850
0.031877
0.030191
0.029774
0.026284
0.023611
0.022645
0.022128
0.021671
0.021217
0.020759
0.020276
0.019783
0.019282
0.018747
0.018245
0.000000
0.125000
0.067877
0.049223
0.040177
0.038301
0.037415
0.036296
0.035404
0.034662
0.034141
0.033710
0.033391
0.033137
0.032922
0.033280
0.031638
0.031608
0.027390
0.024267
0.023283
0.022887
0.022568
0.022235
0.021855
0.021431
0.020973
0.020492
0.019980
0.019491
0.000000
0.125000
0.067894
0.048777
0.039675
0.038002
0.037491
0.036700
0.035955
0.035344
0.034836
0.034400
0.034065
0.033785
0.033668
0.034304
0.032537
0.032812
0.028348
0.024900
0.023805
0.023447
0.023205
0.022913
0.022572
0.022184
0.021746
0.021283
0.020778
0.020284
0.000000
0.125000
0.067886
0.048606
0.039453
0.037845
0.037475
0.036779
0.036124
0.035521
0.035042
0.034598
0.034275
0.034000
0.033896
0.034678
0.032900
0.033354
0.028760
0.025176
0.024044
0.023704
0.023485
0.023206
0.022879
0.022507
0.022086
0.021633
0.021133
0.020640
0.000000
0.125000
0.067855
0.048607
0.039440
0.037808
0.037388
0.036631
0.035930
0.035336
0.034831
0.034409
0.034113
0.033861
0.033764
0.034572
0.032866
0.033283
0.028717
0.025140
0.023998
0.023626
0.023358
0.023045
0.022691
0.022296
0.021857
0.021399
0.020892
0.020394
0.000000
0.125000
0.067859
0.048952
0.039873
0.038111
0.037467
0.036460
0.035592
0.034949
0.034461
0.034044
0.033767
0.033538
0.033411
0.034072
0.032405
0.032677
0.028383
0.025016
0.023920
0.023503
0.023176
0.022806
0.022409
0.021992
0.021536
0.021060
0.020552
0.020056
0.000000
0.125000
0.067872
0.049491
0.040316
0.038050
0.036894
0.035586
0.034548
0.033774
0.033307
0.032948
0.032741
0.032590
0.032395
0.032857
0.031426
0.031408
0.027433
0.024372
0.023268
0.022693
0.022237
0.021772
0.021304
0.020829
0.020342
0.019843
0.019321
0.018824
0.000000
0.125000
0.068000
0.050834
0.041563
0.038214
0.035962
0.034269
0.033144
0.032356
0.031856
0.031555
0.031441
0.031349
0.031063
0.031328
0.029955
0.029555
0.026381
0.023736
0.022636
0.021779
0.021094
0.020526
0.020005
0.019484
0.018980
0.018477
0.017935
0.017426
0.000000
0.125000
0.068081
0.051334
0.039742
0.035576
0.033296
0.031432
0.030187
0.029466
0.028949
0.028708
0.028576
0.028575
0.028396
0.028734
0.027658
0.027229
0.024663
0.021598
0.020092
0.019154
0.018389
0.017692
0.017120
0.016602
0.016082
0.015572
0.015018
0.014492
0.000000
0.125000
0.069019
0.051619
0.037294
0.031647
0.029735
0.028198
0.027115
0.026163
0.025791
0.025377
0.025193
0.025166
0.025168
0.025561
0.025048
0.025243
0.023917
0.020375
0.017913
0.016546
0.015659
0.014992
0.014391
0.013898
0.013411
0.012900
0.012369
0.011866
0.000000
0.125000
0.047388
0.022822
0.017572
0.016999
0.015504
0.014548
0.014041
0.013797
0.013430
0.013115
0.012747
0.012453
0.012353
0.012387
0.013098
0.014840
0.010298
0.008934
0.008358
0.007646
0.007089
0.006704
0.006438
0.006162
0.005865
0.005587
0.005284
0.004999
0.000000
0.125000
0.000000
0.000000
0.000000
0.000000
0.000000
0.000000
0.000000
0.000000
0.000000
0.000000
0.000000
0.000000
0.000000
0.000000
0.000000
0.000000
0.000000
0.000000
0.000000
0.000000
0.000000
0.000000
0.000000
0.000000
0.000000
0.000000
0.000000
0.000000
0.000000
0.125000
0.069153
0.047996
0.036916
0.033193
0.031083
0.029548
0.028398
0.027568
0.027017
0.026412
0.026047
0.025718
0.025337
0.024188
0.021069
0.020010
0.017467
0.016230
0.015490
0.014860
0.014337
0.013866
0.013432
0.013009
0.012562
0.012080
0.011592
0.011168
0.000000
0.125000
0.081051
0.071141
0.058687
0.051016
0.046185
0.043354
0.041854
0.040541
0.039812
0.039292
0.039166
0.039130
0.038439
0.036246
0.024029
0.028831
0.026725
0.025447
0.024429
0.023519
0.022858
0.022338
0.021802
0.021270
0.020675
0.020031
0.019408
0.018926
0.000000
0.125000
0.084064
0.079392
0.069322
0.061222
0.055614
0.052272
0.050089
0.048685
0.047793
0.047321
0.047267
0.047147
0.046141
0.043173
0.024241
0.034934
0.032617
0.031469
0.030588
0.029755
0.029154
0.028621
0.028100
0.027527
0.026907
0.026256
0.025636
0.025166
0.000000
0.125000
0.083217
0.079011
0.071515
0.065340
0.060169
0.056560
0.054415
0.052975
0.052143
0.051601
0.051453
0.051222
0.050242
0.047487
0.024558
0.039286
0.036644
0.035325
0.034418
0.033602
0.033011
0.032515
0.032022
0.031471
0.030864
0.030251
0.029668
0.029213
0.000000
0.125000
0.082762
0.078394
0.071992
0.067028
0.062701
0.059645
0.057717
0.056348
0.055448
0.054842
0.054583
0.054241
0.053365
0.050871
0.025082
0.042885
0.040070
0.038593
0.037547
0.036718
0.036161
0.035697
0.035210
0.034677
0.034101
0.033519
0.032968
0.032527
0.000000
0.125000
0.082661
0.077904
0.071455
0.066981
0.063410
0.060956
0.059305
0.058057
0.057172
0.056612
0.056395
0.056067
0.055376
0.053204
0.025731
0.045497
0.042624
0.040961
0.039696
0.038751
0.038145
0.037657
0.037118
0.036563
0.035993
0.035424
0.034874
0.034427
0.000000
0.125000
0.082677
0.077726
0.071242
0.067014
0.063761
0.061604
0.060263
0.059117
0.058357
0.057840
0.057646
0.057333
0.056741
0.054745
0.026117
0.047314
0.044427
0.042785
0.041469
0.040451
0.039806
0.039300
0.038760
0.038198
0.037633
0.037075
0.036533
0.036084
0.000000
0.125000
0.082519
0.077359
0.070737
0.066482
0.063321
0.061308
0.060091
0.059127
0.058464
0.058065
0.057982
0.057794
0.057377
0.055591
0.026538
0.048379
0.045446
0.043762
0.042385
0.041309
0.040577
0.039995
0.039363
0.038765
0.038144
0.037550
0.036983
0.036522
0.000000
0.125000
0.082466
0.077393
0.070706
0.066364
0.063144
0.061126
0.059982
0.059138
0.058583
0.058265
0.058247
0.058118
0.057748
0.055963
0.026884
0.048886
0.046130
0.044603
0.043308
0.042249
0.041500
0.040866
0.040218
0.039587
0.038945
0.038337
0.037761
0.037298
0.000000
0.125000
0.082299
0.077107
0.070166
0.065447
0.061869
0.059580
0.058343
0.057504
0.057055
0.056876
0.057048
0.057156
0.056880
0.055273
0.026835
0.048396
0.045744
0.044366
0.043070
0.041856
0.040917
0.040155
0.039401
0.038706
0.038001
0.037351
0.036768
0.036284
0.000000
0.125000
0.082244
0.076781
0.069220
0.063887
0.059798
0.057150
0.055760
0.054797
0.054439
0.054431
0.054868
0.055195
0.055021
0.053667
0.026427
0.047108
0.044923
0.043622
0.042141
0.040678
0.039520
0.038626
0.037816
0.037080
0.036371
0.035712
0.035108
0.034624
0.000000
0.125000
0.081825
0.075566
0.067040
0.060648
0.055742
0.052692
0.051018
0.050023
0.049639
0.049807
0.050590
0.051306
0.051613
0.050751
0.025280
0.044927
0.043148
0.041622
0.039471
0.037525
0.036100
0.035080
0.034228
0.033446
0.032737
0.032075
0.031455
0.030953
0.000000
0.125000
0.080400
0.071622
0.061237
0.053804
0.048422
0.045135
0.043390
0.042262
0.041825
0.042015
0.042849
0.043902
0.045299
0.045709
0.024247
0.042023
0.039642
0.037002
0.033996
0.031713
0.030224
0.029232
0.028409