# vtk DataFile Version 3.0
LBM Simulation Data (speed_m_per_s) [FIXED_SCALING_v11]
ASCII
DATASET STRUCTURED_GRID
DIMENSIONS 30 30 30
POINTS 27000 float
0 0 0
1 0 0
2 0 0
3 0 0
4 0 0
5 0 0
6 0 0
7 0 0
8 0 0
9 0 0
10 0 0
11 0 0
12 0 0
13 0 0
14 0 0
15 0 0
16 0 0
17 0 0
18 0 0
19 0 0
20 0 0
21 0 0
22 0 0
23 0 0
24 0 0
25 0 0
26 0 0
27 0 0
28 0 0
29 0 0
0 1 0
1 1 0
2 1 0
3 1 0
4 1 0
5 1 0
6 1 0
7 1 0
8 1 0
9 1 0
10 1 0
11 1 0
12 1 0
13 1 0
14 1 0
15 1 0
16 1 0
17 1 0
18 1 0
19 1 0
20 1 0
21 1 0
22 1 0
23 1 0
24 1 0
25 1 0
26 1 0
27 1 0
28 1 0
29 1 0
0 2 0
1 2 0
2 2 0
3 2 0
4 2 0
5 2 0
6 2 0
7 2 0
8 2 0
9 2 0
10 2 0
11 2 0
12 2 0
13 2 0
14 2 0
15 2 0
16 2 0
17 2 0
18 2 0
19 2 0
20 2 0
21 2 0
22 2 0
23 2 0
24 2 0
25 2 0
26 2 0
27 2 0
28 2 0
29 2 0
0 3 0
1 3 0
2 3 0
3 3 0
4 3 0
5 3 0
6 3 0
7 3 0
8 3 0
9 3 0
10 3 0
11 3 0
12 3 0
13 3 0
14 3 0
15 3 0
16 3 0
17 3 0
18 3 0
19 3 0
20 3 0
21 3 0
22 3 0
23 3 0
24 3 0
25 3 0
26 3 0
27 3 0
28 3 0
29 3 0
0 4 0
1 4 0
2 4 0
3 4 0
4 4 0
5 4 0
6 4 0
7 4 0
8 4 0
9 4 0
10 4 0
11 4 0
12 4 0
13 4 0
14 4 0
15 4 0
16 4 0
17 4 0
18 4 0
19 4 0
20 4 0
21 4 0
22 4 0
23 4 0
24 4 0
25 4 0
26 4 0
27 4 0
28 4 0
29 4 0
0 5 0
1 5 0
2 5 0
3 5 0
4 5 0
5 5 0
6 5 0
7 5 0
8 5 0
9 5 0
10 5 0
11 5 0
12 5 0
13 5 0
14 5 0
15 5 0
16 5 0
17 5 0
18 5 0
19 5 0
20 5 0
21 5 0
22 5 0
23 5 0
24 5 0
25 5 0
26 5 0
27 5 0
28 5 0
29 5 0
0 6 0
1 6 0
2 6 0
3 6 0
4 6 0
5 6 0
6 6 0
7 6 0
8 6 0
9 6 0
10 6 0
11 6 0
12 6 0
13 6 0
14 6 0
15 6 0
16 6 0
17 6 0
18 6 0
19 6 0
20 6 0
21 6 0
22 6 0
23 6 0
24 6 0
25 6 0
26 6 0
27 6 0
28 6 0
29 6 0
0 7 0
1 7 0
2 7 0
3 7 0
4 7 0
5 7 0
6 7 0
7 7 0
8 7 0
9 7 0
10 7 0
11 7 0
12 7 0
13 7 0
14 7 0
15 7 0
16 7 0
17 7 0
18 7 0
19 7 0
20 7 0
21 7 0
22 7 0
23 7 0
24 7 0
25 7 0
26 7 0
27 7 0
28 7 0
29 7 0
0 8 0
1 8 0
2 8 0
3 8 0
4 8 0
5 8 0
6 8 0
7 8 0
8 8 0
9 8 0
10 8 0
11 8 0
12 8 0
13 8 0
14 8 0
15 8 0
16 8 0
17 8 0
18 8 0
19 8 0
20 8 0
21 8 0
22 8 0
23 8 0
24 8 0
25 8 0
26 8 0
27 8 0
28 8 0
29 8 0
0 9 0
1 9 0
2 9 0
3 9 0
4 9 0
5 9 0
6 9 0
7 9 0
8 9 0
9 9 0
10 9 0
11 9 0
12 9 0
13 9 0
14 9 0
15 9 0
16 9 0
17 9 0
18 9 0
19 9 0
20 9 0
21 9 0
22 9 0
23 9 0
24 9 0
25 9 0
26 9 0
27 9 0
28 9 0
29 9 0
0 10 0
1 10 0
2 10 0
3 10 0
4 10 0
5 10 0
6 10 0
7 10 0
8 10 0
9 10 0
10 10 0
11 10 0
12 10 0
13 10 0
14 10 0
15 10 0
16 10 0
17 10 0
18 10 0
19 10 0
20 10 0
21 10 0
22 10 0
23 10 0
24 10 0
25 10 0
26 10 0
27 10 0
28 10 0
29 10 0
0 11 0
1 11 0
2 11 0
3 11 0
4 11 0
5 11 0
6 11 0
7 11 0
8 11 0
9 11 0
10 11 0
11 11 0
12 11 0
13 11 0
14 11 0
15 11 0
16 11 0
17 11 0
18 11 0
19 11 0
20 11 0
21 11 0
22 11 0
23 11 0
24 11 0
25 11 0
26 11 0
27 11 0
28 11 0
29 11 0
0 12 0
1 12 0
2 12 0
3 12 0
4 12 0
5 12 0
6 12 0
7 12 0
8 12 0
9 12 0
10 12 0
11 12 0
12 12 0
13 12 0
14 12 0
15 12 0
16 12 0
17 12 0
18 12 0
19 12 0
20 12 0
21 12 0
22 12 0
23 12 0
24 12 0
25 12 0
26 12 0
27 12 0
28 12 0
29 12 0
0 13 0
1 13 0
2 13 0
3 13 0
4 13 0
5 13 0
6 13 0
7 13 0
8 13 0
9 13 0
10 13 0
11 13 0
12 13 0
13 13 0
14 13 0
15 13 0
16 13 0
17 13 0
18 13 0
19 13 0
20 13 0
21 13 0
22 13 0
23 13 0
24 13 0
25 13 0
26 13 0
27 13 0
28 13 0
29 13 0
0 14 0
1 14 0
2 14 0
3 14 0
4 14 0
5 14 0
6 14 0
7 14 0
8 14 0
9 14 0
10 14 0
11 14 0
12 14 0
13 14 0
14 14 0
15 14 0
16 14 0
17 14 0
18 14 0
19 14 0
20 14 0
21 14 0
22 14 0
23 14 0
24 14 0
25 14 0
26 14 0
27 14 0
28 14 0
29 14 0
0 15 0
1 15 0
2 15 0
3 15 0
4 15 0
5 15 0
6 15 0
7 15 0
8 15 0
9 15 0
10 15 0
11 15 0
12 15 0
13 15 0
14 15 0
15 15 0
16 15 0
17 15 0
18 15 0
19 15 0
20 15 0
21 15 0
22 15 0
23 15 0
24 15 0
25 15 0
26 15 0
27 15 0
28 15 0
29 15 0
0 16 0
1 16 0
2 16 0
3 16 0
4 16 0
5 16 0
6 16 0
7 16 0
8 16 0
9 16 0
10 16 0
11 16 0
12 16 0
13 16 0
14 16 0
15 16 0
16 16 0
17 16 0
18 16 0
19 16 0
20 16 0
21 16 0
22 16 0
23 16 0
24 16 0
25 16 0
26 16 0
27 16 0
28 16 0
29 16 0
0 17 0
1 17 0
2 17 0
3 17 0
4 17 0
5 17 0
6 17 0
7 17 0
8 17 0
9 17 0
10 17 0
11 17 0
12 17 0
13 17 0
14 17 0
15 17 0
16 17 0
17 17 0
18 17 0
19 17 0
20 17 0
21 17 0
22 17 0
23 17 0
24 17 0
25 17 0
26 17 0
27 17 0
28 17 0
29 17 0
0 18 0
1 18 0
2 18 0
3 18 0
4 18 0
5 18 0
6 18 0
7 18 0
8 18 0
9 18 0
10 18 0
11 18 0
12 18 0
13 18 0
14 18 0
15 18 0
16 18 0
17 18 0
18 18 0
19 18 0
20 18 0
21 18 0
22 18 0
23 18 0
24 18 0
25 18 0
26 18 0
27 18 0
28 18 0
29 18 0
0 19 0
1 19 0
2 19 0
3 19 0
4 19 0
5 19 0
6 19 0
7 19 0
8 19 0
9 19 0
10 19 0
11 19 0
12 19 0
13 19 0
14 19 0
15 19 0
16 19 0
17 19 0
18 19 0
19 19 0
20 19 0
21 19 0
22 19 0
23 19 0
24 19 0
25 19 0
26 19 0
27 19 0
28 19 0
29 19 0
0 20 0
1 20 0
2 20 0
3 20 0
4 20 0
5 20 0
6 20 0
7 20 0
8 20 0
9 20 0
10 20 0
11 20 0
12 20 0
13 20 0
14 20 0
15 20 0
16 20 0
17 20 0
18 20 0
19 20 0
20 20 0
21 20 0
22 20 0
23 20 0
24 20 0
25 20 0
26 20 0
27 20 0
28 20 0
29 20 0
0 21 0
1 21 0
2 21 0
3 21 0
4 21 0
5 21 0
6 21 0
7 21 0
8 21 0
9 21 0
10 21 0
11 21 0
12 21 0
13 21 0
14 21 0
15 21 0
16 21 0
17 21 0
18 21 0
19 21 0
20 21 0
21 21 0
22 21 0
23 21 0
24 21 0
25 21 0
26 21 0
27 21 0
28 21 0
29 21 0
0 22 0
1 22 0
2 22 0
3 22 0
4 22 0
5 22 0
6 22 0
7 22 0
8 22 0
9 22 0
10 22 0
11 22 0
12 22 0
13 22 0
14 22 0
15 22 0
16 22 0
17 22 0
18 22 0
19 22 0
20 22 0
21 22 0
22 22 0
23 22 0
24 22 0
25 22 0
26 22 0
27 22 0
28 22 0
29 22 0
0 23 0
1 23 0
2 23 0
3 23 0
4 23 0
5 23 0
6 23 0
7 23 0
8 23 0
9 23 0
10 23 0
11 23 0
12 23 0
13 23 0
14 23 0
15 23 0
16 23 0
17 23 0
18 23 0
19 23 0
20 23 0
21 23 0
22 23 0
23 23 0
24 23 0
25 23 0
26 23 0
27 23 0
28 23 0
29 23 0
0 24 0
1 24 0
2 24 0
3 24 0
4 24 0
5 24 0
6 24 0
7 24 0
8 24 0
9 24 0
10 24 0
11 24 0
12 24 0
13 24 0
14 24 0
15 24 0
16 24 0
17 24 0
18 24 0
19 24 0
20 24 0
21 24 0
22 24 0
23 24 0
24 24 0
25 24 0
26 24 0
27 24 0
28 24 0
29 24 0
0 25 0
1 25 0
2 25 0
3 25 0
4 25 0
5 25 0
6 25 0
7 25 0
8 25 0
9 25 0
10 25 0
11 25 0
12 25 0
13 25 0
14 25 0
15 25 0
16 25 0
17 25 0
18 25 0
19 25 0
20 25 0
21 25 0
22 25 0
23 25 0
24 25 0
25 25 0
26 25 0
27 25 0
28 25 0
29 25 0
0 26 0
1 26 0
2 26 0
3 26 0
4 26 0
5 26 0
6 26 0
7 26 0
8 26 0
9 26 0
10 26 0
11 26 0
12 26 0
13 26 0
14 26 0
15 26 0
16 26 0
17 26 0
18 26 0
19 26 0
20 26 0
21 26 0
22 26 0
23 26 0
24 26 0
25 26 0
26 26 0
27 26 0
28 26 0
29 26 0
0 27 0
1 27 0
2 27 0
3 27 0
4 27 0
5 27 0
6 27 0
7 27 0
8 27 0
9 27 0
10 27 0
11 27 0
12 27 0
13 27 0
14 27 0
15 27 0
16 27 0
17 27 0
18 27 0
19 27 0
20 27 0
21 27 0
22 27 0
23 27 0
24 27 0
25 27 0
26 27 0
27 27 0
28 27 0
29 27 0
0 28 0
1 28 0
2 28 0
3 28 0
4 28 0
5 28 0
6 28 0
7 28 0
8 28 0
9 28 0
10 28 0
11 28 0
12 28 0
13 28 0
14 28 0
15 28 0
16 28 0
17 28 0
18 28 0
19 28 0
20 28 0
21 28 0
22 28 0
23 28 0
24 28 0
25 28 0
26 28 0
27 28 0
28 28 0
29 28 0
0 29 0
1 29 0
2 29 0
3 29 0
4 29 0
5 29 0
6 29 0
7 29 0
8 29 0
9 29 0
10 29 0
11 29 0
12 29 0
13 29 0
14 29 0
15 29 0
16 29 0
17 29 0
18 29 0
19 29 0
20 29 0
21 29 0
22 29 0
23 29 0
24 29 0
25 29 0
26 29 0
27 29 0
28 29 0
29 29 0
0 0 1
1 0 1
2 0 1
3 0 1
4 0 1
5 0 1
6 0 1
7 0 1
8 0 1
9 0 1
10 0 1
11 0 1
12 0 1
13 0 1
14 0 1
15 0 1
16 0 1
17 0 1
18 0 1
19 0 1
20 0 1
21 0 1
22 0 1
23 0 1
24 0 1
25 0 1
26 0 1
27 0 1
28 0 1
29 0 1
0 1 1
1 1 1
2 1 1
3 1 1
4 1 1
5 1 1
6 1 1
7 1 1
8 1 1
9 1 1
10 1 1
11 1 1
12 1 1
13 1 1
14 1 1
15 1 1
16 1 1
17 1 1
18 1 1
19 1 1
20 1 1
21 1 1
22 1 1
23 1 1
24 1 1
25 1 1
26 1 1
27 1 1
28 1 1
29 1 1
0 2 1
1 2 1
2 2 1
3 2 1
4 2 1
5 2 1
6 2 1
7 2 1
8 2 1
9 2 1
10 2 1
11 2 1
12 2 1
13 2 1
14 2 1
15 2 1
16 2 1
17 2 1
18 2 1
19 2 1
20 2 1
21 2 1
22 2 1
23 2 1
24 2 1
25 2 1
26 2 1
27 2 1
28 2 1
29 2 1
0 3 1
1 3 1
2 3 1
3 3 1
4 3 1
5 3 1
6 3 1
7 3 1
8 3 1
9 3 1
10 3 1
11 3 1
12 3 1
13 3 1
14 3 1
15 3 1
16 3 1
17 3 1
18 3 1
19 3 1
20 3 1
21 3 1
22 3 1
23 3 1
24 3 1
25 3 1
26 3 1
27 3 1
28 3 1
29 3 1
0 4 1
1 4 1
2 4 1
3 4 1
4 4 1
5 4 1
6 4 1
7 4 1
8 4 1
9 4 1
10 4 1
11 4 1
12 4 1
13 4 1
14 4 1
15 4 1
16 4 1
17 4 1
18 4 1
19 4 1
20 4 1
21 4 1
22 4 1
23 4 1
24 4 1
25 4 1
26 4 1
27 4 1
28 4 1
29 4 1
0 5 1
1 5 1
2 5 1
3 5 1
4 5 1
5 5 1
6 5 1
7 5 1
8 5 1
9 5 1
10 5 1
11 5 1
12 5 1
13 5 1
14 5 1
15 5 1
16 5 1
17 5 1
18 5 1
19 5 1
20 5 1
21 5 1
22 5 1
23 5 1
24 5 1
25 5 1
26 5 1
27 5 1
28 5 1
29 5 1
0 6 1
1 6 1
2 6 1
3 6 1
4 6 1
5 6 1
6 6 1
7 6 1
8 6 1
9 6 1
10 6 1
11 6 1
12 6 1
13 6 1
14 6 1
15 6 1
16 6 1
17 6 1
18 6 1
19 6 1
20 6 1
21 6 1
22 6 1
23 6 1
24 6 1
25 6 1
26 6 1
27 6 1
28 6 1
29 6 1
0 7 1
1 7 1
2 7 1
3 7 1
4 7 1
5 7 1
6 7 1
7 7 1
8 7 1
9 7 1
10 7 1
11 7 1
12 7 1
13 7 1
14 7 1
15 7 1
16 7 1
17 7 1
18 7 1
19 7 1
20 7 1
21 7 1
22 7 1
23 7 1
24 7 1
25 7 1
26 7 1
27 7 1
28 7 1
29 7 1
0 8 1
1 8 1
2 8 1
3 8 1
4 8 1
5 8 1
6 8 1
7 8 1
8 8 1
9 8 1
10 8 1
11 8 1
12 8 1
13 8 1
14 8 1
15 8 1
16 8 1
17 8 1
18 8 1
19 8 1
20 8 1
21 8 1
22 8 1
23 8 1
24 8 1
25 8 1
26 8 1
27 8 1
28 8 1
29 8 1
0 9 1
1 9 1
2 9 1
3 9 1
4 9 1
5 9 1
6 9 1
7 9 1
8 9 1
9 9 1
10 9 1
11 9 1
12 9 1
13 9 1
14 9 1
15 9 1
16 9 1
17 9 1
18 9 1
19 9 1
20 9 1
21 9 1
22 9 1
23 9 1
24 9 1
25 9 1
26 9 1
27 9 1
28 9 1
29 9 1
0 10 1
1 10 1
2 10 1
3 10 1
4 10 1
5 10 1
6 10 1
7 10 1
8 10 1
9 10 1
10 10 1
11 10 1
12 10 1
13 10 1
14 10 1
15 10 1
16 10 1
17 10 1
18 10 1
19 10 1
20 10 1
21 10 1
22 10 1
23 10 1
24 10 1
25 10 1
26 10 1
27 10 1
28 10 1
29 10 1
0 11 1
1 11 1
2 11 1
3 11 1
4 11 1
5 11 1
6 11 1
7 11 1
8 11 1
9 11 1
10 11 1
11 11 1
12 11 1
13 11 1
14 11 1
15 11 1
16 11 1
17 11 1
18 11 1
19 11 1
20 11 1
21 11 1
22 11 1
23 11 1
24 11 1
25 11 1
26 11 1
27 11 1
28 11 1
29 11 1
0 12 1
1 12 1
2 12 1
3 12 1
4 12 1
5 12 1
6 12 1
7 12 1
8 12 1
9 12 1
10 12 1
11 12 1
12 12 1
13 12 1
14 12 1
15 12 1
16 12 1
17 12 1
18 12 1
19 12 1
20 12 1
21 12 1
22 12 1
23 12 1
24 12 1
25 12 1
26 12 1
27 12 1
28 12 1
29 12 1
0 13 1
1 13 1
2 13 1
3 13 1
4 13 1
5 13 1
6 13 1
7 13 1
8 13 1
9 13 1
10 13 1
11 13 1
12 13 1
13 13 1
14 13 1
15 13 1
16 13 1
17 13 1
18 13 1
19 13 1
20 13 1
21 13 1
22 13 1
23 13 1
24 13 1
25 13 1
26 13 1
27 13 1
28 13 1
29 13 1
0 14 1
1 14 1
2 14 1
3 14 1
4 14 1
5 14 1
6 14 1
7 14 1
8 14 1
9 14 1
10 14 1
11 14 1
12 14 1
13 14 1
14 14 1
15 14 1
16 14 1
17 14 1
18 14 1
19 14 1
20 14 1
21 14 1
22 14 1
23 14 1
24 14 1
25 14 1
26 14 1
27 14 1
28 14 1
29 14 1
0 15 1
1 15 1
2 15 1
3 15 1
4 15 1
5 15 1
6 15 1
7 15 1
8 15 1
9 15 1
10 15 1
11 15 1
12 15 1
[...]
POINT_DATA 27000
SCALARS speed_m_per_s float 1
LOOKUP_TABLE default
0.125000
0.000000
0.000000
0.000000
0.000000
0.000000
0.000000
0.000000
0.000000
0.000000
0.000000
0.000000
0.000000
0.000000
0.000000
0.000000
0.000000
0.000000
0.000000
0.000000
0.000000
0.000000
0.000000
0.000000
0.000000
0.000000
0.000000
0.000000
0.000000
0.000000
0.125000
0.000000
0.000000
0.000000
0.000000
0.000000
0.000000
0.000000
0.000000
0.000000
0.000000
0.000000
0.000000
0.000000
0.000000
0.000000
0.000000
0.000000
0.000000
0.000000
0.000000
0.000000
0.000000
0.000000
0.000000
0.000000
0.000000
0.000000
0.000000
0.000000
0.125000
0.000000
0.000000
0.000000
0.000000
0.000000
0.000000
0.000000
0.000000
0.000000
0.000000
0.000000
0.000000
0.000000
0.000000
0.000000
0.000000
0.000000
0.000000
0.000000
0.000000
0.000000
0.000000
0.000000
0.000000
0.000000
0.000000
0.000000
0.000000
0.000000
0.125000
0.000000
0.000000
0.000000
0.000000
0.000000
0.000000
0.000000
0.000000
0.000000
0.000000
0.000000
0.000000
0.000000
0.000000
0.000000
0.000000
0.000000
0.000000
0.000000
0.000000
0.000000
0.000000
0.000000
0.000000
0.000000
0.000000
0.000000
0.000000
0.000000
0.125000
0.000000
0.000000
0.000000
0.000000
0.000000
0.000000
0.000000
0.000000
0.000000
0.000000
0.000000
0.000000
0.000000
0.000000
0.000000
0.000000
0.000000
0.000000
0.000000
0.000000
0.000000
0.000000
0.000000
0.000000
0.000000
0.000000
0.000000
0.000000
0.000000
0.125000
0.000000
0.000000
0.000000
0.000000
0.000000
0.000000
0.000000
0.000000
0.000000
0.000000
0.000000
0.000000
0.000000
0.000000
0.000000
0.000000
0.000000
0.000000
0.000000
0.000000
0.000000
0.000000
0.000000
0.000000
0.000000
0.000000
0.000000
0.000000
0.000000
0.125000
0.000000
0.000000
0.000000
0.000000
0.000000
0.000000
0.000000
0.000000
0.000000
0.000000
0.000000
0.000000
0.000000
0.000000
0.000000
0.000000
0.000000
0.000000
0.000000
0.000000
0.000000
0.000000
0.000000
0.000000
0.000000
0.000000
0.000000
0.000000
0.000000
0.125000
0.000000
0.000000
0.000000
0.000000
0.000000
0.000000
0.000000
0.000000
0.000000
0.000000
0.000000
0.000000
0.000000
0.000000
0.000000
0.000000
0.000000
0.000000
0.000000
0.000000
0.000000
0.000000
0.000000
0.000000
0.000000
0.000000
0.000000
0.000000
0.000000
0.125000
0.000000
0.000000
0.000000
0.000000
0.000000
0.000000
0.000000
0.000000
0.000000
0.000000
0.000000
0.000000
0.000000
0.000000
0.000000
0.000000
0.000000
0.000000
0.000000
0.000000
0.000000
0.000000
0.000000
0.000000
0.000000
0.000000
0.000000
0.000000
0.000000
0.125000
0.000000
0.000000
0.000000
0.000000
0.000000
0.000000
0.000000
0.000000
0.000000
0.000000
0.000000
0.000000
0.000000
0.000000
0.000000
0.000000
0.000000
0.000000
0.000000
0.000000
0.000000
0.000000
0.000000
0.000000
0.000000
0.000000
0.000000
0.000000
0.000000
0.125000
0.000000
0.000000
0.000000
0.000000
0.000000
0.000000
0.000000
0.000000
0.000000
0.000000
0.000000
0.000000
0.000000
0.000000
0.000000
0.000000
0.000000
0.000000
0.000000
0.000000
0.000000
0.000000
0.000000
0.000000
0.000000
0.000000
0.000000
0.000000
0.000000
0.125000
0.000000
0.000000
0.000000
0.000000
0.000000
0.000000
0.000000
0.000000
0.000000
0.000000
0.000000
0.000000
0.000000
0.000000
0.000000
0.000000
0.000000
0.000000
0.000000
0.000000
0.000000
0.000000
0.000000
0.000000
0.000000
0.000000
0.000000
0.000000
0.000000
0.125000
0.000000
0.000000
0.000000
0.000000
0.000000
0.000000
0.000000
0.000000
0.000000
0.000000
0.000000
0.000000
0.000000
0.000000
0.000000
0.000000
0.000000
0.000000
0.000000
0.000000
0.000000
0.000000
0.000000
0.000000
0.000000
0.000000
0.000000
0.000000
0.000000
0.125000
0.000000
0.000000
0.000000
0.000000
0.000000
0.000000
0.000000
0.000000
0.000000
0.000000
0.000000
0.000000
0.000000
0.000000
0.000000
0.000000
0.000000
0.000000
0.000000
0.000000
0.000000
0.000000
0.000000
0.000000
0.000000
0.000000
0.000000
0.000000
0.000000
0.125000
0.000000
0.000000
0.000000
0.000000
0.000000
0.000000
0.000000
0.000000
0.000000
0.000000
0.000000
0.000000
0.000000
0.000000
0.000000
0.000000
0.000000
0.000000
0.000000
0.000000
0.000000
0.000000
0.000000
0.000000
0.000000
0.000000
0.000000
0.000000
0.000000
0.125000
0.000000
0.000000
0.000000
0.000000
0.000000
0.000000
0.000000
0.000000
0.000000
0.000000
0.000000
0.000000
0.000000
0.000000
0.000000
0.000000
0.000000
0.000000
0.000000
0.000000
0.000000
0.000000
0.000000
0.000000
0.000000
0.000000
0.000000
0.000000
0.000000
0.125000
0.000000
0.000000
0.000000
0.000000
0.000000
0.000000
0.000000
0.000000
0.000000
0.000000
0.000000
0.000000
0.000000
0.000000
0.000000
0.000000
0.000000
0.000000
0.000000
0.000000
0.000000
0.000000
0.000000
0.000000
0.000000
0.000000
0.000000
0.000000
0.000000
0.125000
0.000000
0.000000
0.000000
0.000000
0.000000
0.000000
0.000000
0.000000
0.000000
0.000000
0.000000
0.000000
0.000000
0.000000
0.000000
0.000000
0.000000
0.000000
0.000000
0.000000
0.000000
0.000000
0.000000
0.000000
0.000000
0.000000
0.000000
0.000000
0.000000
0.125000
0.000000
0.000000
0.000000
0.000000
0.000000
0.000000
0.000000
0.000000
0.000000
0.000000
0.000000
0.000000
0.000000
0.000000
0.000000
0.000000
0.000000
0.000000
0.000000
0.000000
0.000000
0.000000
0.000000
0.000000
0.000000
0.000000
0.000000
0.000000
0.000000
0.125000
0.000000
0.000000
0.000000
0.000000
0.000000
0.000000
0.000000
0.000000
0.000000
0.000000
0.000000
0.000000
0.000000
0.000000
0.000000
0.000000
0.000000
0.000000
0.000000
0.000000
0.000000
0.000000
0.000000
0.000000
0.000000
0.000000
0.000000
0.000000
0.000000
0.125000
0.000000
0.000000
0.000000
0.000000
0.000000
0.000000
0.000000
0.000000
0.000000
0.000000
0.000000
0.000000
0.000000
0.000000
0.000000
0.000000
0.000000
0.000000
0.000000
0.000000
0.000000
0.000000
0.000000
0.000000
0.000000
0.000000
0.000000
0.000000
0.000000
0.125000
0.000000
0.000000
0.000000
0.000000
0.000000
0.000000
0.000000
0.000000
0.000000
0.000000
0.000000
0.000000
0.000000
0.000000
0.000000
0.000000
0.000000
0.000000
0.000000
0.000000
0.000000
0.000000
0.000000
0.000000
0.000000
0.000000
0.000000
0.000000
0.000000
0.125000
0.000000
0.000000
0.000000
0.000000
0.000000
0.000000
0.000000
0.000000
0.000000
0.000000
0.000000
0.000000
0.000000
0.000000
0.000000
0.000000
0.000000
0.000000
0.000000
0.000000
0.000000
0.000000
0.000000
0.000000
0.000000
0.000000
0.000000
0.000000
0.000000
0.125000
0.000000
0.000000
0.000000
0.000000
0.000000
0.000000
0.000000
0.000000
0.000000
0.000000
0.000000
0.000000
0.000000
0.000000
0.000000
0.000000
0.000000
0.000000
0.000000
0.000000
0.000000
0.000000
0.000000
0.000000
0.000000
0.000000
0.000000
0.000000
0.000000
0.125000
0.000000
0.000000
0.000000
0.000000
0.000000
0.000000
0.000000
0.000000
0.000000
0.000000
0.000000
0.000000
0.000000
0.000000
0.000000
0.000000
0.000000
0.000000
0.000000
0.000000
0.000000
0.000000
0.000000
0.000000
0.000000
0.000000
0.000000
0.000000
0.000000
0.125000
0.000000
0.000000
0.000000
0.000000
0.000000
0.000000
0.000000
0.000000
0.000000
0.000000
0.000000
0.000000
0.000000
0.000000
0.000000
0.000000
0.000000
0.000000
0.000000
0.000000
0.000000
0.000000
0.000000
0.000000
0.000000
0.000000
0.000000
0.000000
0.000000
0.125000
0.000000
0.000000
0.000000
0.000000
0.000000
0.000000
0.000000
0.000000
0.000000
0.000000
0.000000
0.000000
0.000000
0.000000
0.000000
0.000000
0.000000
0.000000
0.000000
0.000000
0.000000
0.000000
0.000000
0.000000
0.000000
0.000000
0.000000
0.000000
0.000000
0.125000
0.000000
0.000000
0.000000
0.000000
0.000000
0.000000
0.000000
0.000000
0.000000
0.000000
0.000000
0.000000
0.000000
0.000000
0.000000
0.000000
0.000000
0.000000
0.000000
0.000000
0.000000
0.000000
0.000000
0.000000
0.000000
0.000000
0.000000
0.000000
0.000000
0.125000
0.000000
0.000000
0.000000
0.000000
0.000000
0.000000
0.000000
0.000000
0.000000
0.000000
0.000000
0.000000
0.000000
0.000000
0.000000
0.000000
0.000000
0.000000
0.000000
0.000000
0.000000
0.000000
0.000000
0.000000
0.000000
0.000000
0.000000
0.000000
0.000000
0.125000
0.000000
0.000000
0.000000
0.000000
0.000000
0.000000
0.000000
0.000000
0.000000
0.000000
0.000000
0.000000
0.000000
0.000000
0.000000
0.000000
0.000000
0.000000
0.000000
0.000000
0.000000
0.000000
0.000000
0.000000
0.000000
0.000000
0.000000
0.000000
0.000000
0.125000
0.000000
0.000000
0.000000
0.000000
0.000000
0.000000
0.000000
0.000000
0.000000
0.000000
0.000000
0.000000
0.000000
0.000000
0.000000
0.000000
0.000000
0.000000
0.000000
0.000000
0.000000
0.000000
0.000000
0.000000
0.000000
0.000000
0.000000
0.000000
0.000000
0.125000
0.065194
0.038789
0.028760
0.027443
0.026456
0.025423
0.024632
0.023997
0.023431
0.022786
0.022154
0.021521
0.021044
0.019455
0.017772
0.016533
0.013878
0.013326
0.012880
0.012400
0.011905
0.011449
0.011032
0.010610
0.010181
0.009752
0.009324
0.008980
0.000000
0.125000
0.068688
0.047922
0.037371
0.033934
0.032022
0.030514
0.029542
0.028677
0.028071
0.027551
0.027108
0.026718
0.026265
0.024961
0.021599
0.020572
0.017982
0.016911
0.016218
0.015680
0.015184
0.014746
0.014304
0.013872
0.013407
0.012916
0.012411
0.011980
0.000000
0.125000
0.069151
0.050077
0.038882
0.034718
0.032959
0.031521
0.030312
0.029527
0.028954
0.028548
0.028213
0.027916
0.027543
0.026550
0.023674
0.022575
0.019459
0.017824
0.017132
0.016706
0.016330
0.015938
0.015556
0.015145
0.014720
0.014260
0.013771
0.013342
0.000000
0.125000
0.068785
0.049536
0.039066
0.036022
0.034412
0.032772
0.031632
0.030834
0.030325
0.029887
0.029554
0.029251
0.028938
0.028368
0.025794
0.025050
0.021535
0.019306
0.018519
0.018089
0.017735
0.017391
0.017046
0.016665
0.016266
0.015836
0.015373
0.014950
0.000000
0.125000
0.068562
0.048776
0.038744
0.036243
0.034908
0.033548
0.032506
0.031755
0.031224
0.030794
0.030453
0.030118
0.029861
0.029707
0.027448
0.027091
0.023156
0.020448
0.019507
0.019052
0.018708
0.018358
0.018021
0.017651
0.017264
0.016846
0.016399
0.015979
0.000000
0.125000
0.068546
0.048480
0.038535
0.036236
0.035302
0.034223
0.033253
0.032559
0.032023
0.031603
0.031255
0.030888
0.030655
0.030813
0.028743
0.028656
0.024561
0.021507
0.020455
0.019984
0.019625
0.019261
0.018903
0.018533
0.018151
0.017740
0.017297
0.016875
0.000000
0.125000
0.068495
0.048263
0.038265
0.036046
0.035233
0.034256
0.033428
0.032761
0.032292
0.031876
0.031556
0.031232
0.031028
0.031424
0.029574
0.029685
0.025421
0.022173
0.021045
0.020524
0.020141
0.019731
0.019358
0.018964
0.018572
0.018158
0.017712
0.017282
0.000000
0.125000
0.068476
0.048269
0.038255
0.036067
0.035287
0.034371
0.033585
0.033016
0.032553
0.032176
0.031873
0.031556
0.031369
0.031861
0.030113
0.030346
0.026075
0.022757
0.021601
0.021070
0.020662
0.020240
0.019836
0.019440
0.019033
0.018616
0.018162
0.017731
0.000000
0.125000
0.068398
0.048199
0.038180
0.035923
0.035079
0.034132
0.033383
0.032848
0.032447
0.032108
0.031846
0.031572
0.031428
0.031949
0.030390
0.030544
0.026332
0.023023
0.021853
0.021270
0.020831
0.020370
0.019948
0.019511
0.019082
0.018646
0.018179
0.017728
0.000000
0.125000
0.068307
0.048233
0.038167
0.035830
0.034862
0.033779
0.032984
0.032435
0.032067
0.031761
0.031542
0.031358
0.031150
0.031654
0.030252
0.030276
0.026229
0.023052
0.021914
0.021276
0.020768
0.020287
0.019826
0.019377
0.018922
0.018472
0.017999
0.017542
0.000000
0.125000
0.068250
0.048237
0.038009
0.035440
0.034287
0.033040
0.032200
0.031564
0.031241
0.030982
0.030874
0.030805
0.030525
0.031070
0.029673
0.029533
0.025949
0.022897
0.021677
0.020924
0.020297
0.019742
0.019231
0.018748
0.018277
0.017811
0.017325
0.016862
0.000000
0.125000
0.068030
0.047769
0.037383
0.034362
0.032896
0.031489
0.030512
0.029847
0.029453
0.029225
0.029212
0.029199
0.028968
0.029683
0.028380
0.028149
0.024951
0.022096
0.020603
0.019674
0.018943
0.018327
0.017786
0.017274
0.016809
0.016340
0.015833
0.015359
0.000000
0.125000
0.067673
0.046814
0.036188
0.032809
0.031143
0.029586
0.028564
0.027779
0.027356
0.027132
0.027141
0.027169
0.027246
0.028091
0.027053
0.027294
0.024065
0.021231
0.019420
0.018232
0.017374
0.016712
0.016128
0.015634
0.015154
0.014693
0.014192
0.013707
0.000000
0.125000
0.065911
0.044062
0.033031
0.028592
0.026352
0.024738
0.023804
0.023091
0.022637
0.022206
0.021958
0.021645
0.021690
0.022427
0.023478
0.023785
0.019495
0.016790
0.015175
0.014025
0.013197
0.012597
0.012078
0.011601
0.011136
0.010688
0.010216
0.009766
0.000000
0.125000
0.047839
0.027218
0.018678
0.014814
0.012346
0.010354
0.009106
0.008329
0.007817
0.007451
0.007229
0.007087
0.006962
0.007852
0.010884
0.013131
0.009963
0.008151
0.006888
0.005927
0.005197
0.004676
0.004325
0.004052
0.003810
0.003622
0.003432
0.003233
0.000000
0.125000
0.067341
0.045687
0.031531
0.027613
0.025864
0.024504
0.023696
0.023086
0.022580
0.021990
0.021445
0.020833
0.020475
0.019208
0.020165
0.020187
0.016467
0.014647
0.013707
0.012970
0.012308
0.011706
0.011202
0.010732
0.010249
0.009779
0.009288
0.008859
0.000000
0.125000
0.068727
0.051880
0.040975
0.036854
0.034582
0.032774
0.031673
0.030829
0.030305
0.029812
0.029507
0.029214
0.028664
0.028062
0.025971
0.025680
0.023256
0.021338
0.020106
0.019123
0.018308
0.017697
0.017118
0.016584
0.016022
0.015449
0.014856
0.014315
0.000000
0.125000
0.067936
0.051432
0.041686
0.038075
0.036220
0.034614
0.033451
0.032567
0.032000
0.031588
0.031384
0.031150
0.030413
0.029954
0.028139
0.027223
0.024330
0.022318
0.021295
0.020628
0.020091
0.019564
0.019035
0.018503
0.017954
0.017401
0.016815
0.016271
0.000000
0.125000
0.067533
0.050176
0.041291
0.039016
0.037754
0.036314
0.035213
0.034393
0.033858
0.033436
0.033156
0.032893
0.032323
0.032143
0.030340
0.029664
0.026211
0.023705
0.022876
0.022435
0.022031
0.021604
0.021155
0.020668
0.020160
0.019635
0.019072
0.018546
0.000000
0.125000
0.067399
0.049122
0.040409
0.038696
0.037902
0.036834
0.035995
0.035262
0.034752
0.034293
0.033946
0.033631
0.033331
0.033485
0.031762
0.031438
0.027255
0.024317
0.023465
0.023128
0.022850
0.022534
0.022157
0.021726
0.021250
0.020745
0.020206
0.019689
0.000000
0.125000
0.067413
0.048684
0.039923
0.038403
0.037967
0.037216
0.036509
0.035903
0.035401
0.034938
0.034574
0.034238
0.034038
0.034478
0.032648
0.032613
0.028184
0.024930
0.023969
0.023665
0.023458
0.023180
0.022843
0.022446
0.021994
0.021509
0.020977
0.020458
0.000000
0.125000
0.067408
0.048517
0.039705
0.038249
0.037950
0.037280
0.036660
0.036054
0.035581
0.035108
0.034759
0.034430
0.034250
0.034840
0.033012
0.033144
0.028581
0.025192
0.024189
0.023903
0.023710
0.023441
0.023113
0.022732
0.022293
0.021819
0.021292
0.020774
0.000000
0.125000
0.067379
0.048524
0.039699
0.038220
0.037871
0.037144
0.036472
0.035879
0.035374
0.034924
0.034601
0.034297
0.034127
0.034749
0.032987
0.033089
0.028559
0.025179
0.024173
0.023854
0.023619
0.023320
0.022972
0.022570
0.022114
0.021636
0.021103
0.020580
0.000000
0.125000
0.067387
0.048869
0.040126
0.038517
0.037953
0.036980
0.036149
0.035504
0.035021
0.034573
0.034268
0.033988
0.033787
0.034269
0.032546
0.032515
0.028253
0.025072
0.024104
0.023745
0.023454
0.023100
0.022708
0.022284
0.021811
0.021314
0.020781
0.020259
0.000000
0.125000
0.067407
0.049413
0.040571
0.038465
0.037403
0.036147
0.035148
0.034378
0.033911
0.033521
0.033285
0.033082
0.032814
0.033100
0.031594
0.031304
0.027364
0.024484
0.023510
0.023001
0.022595
0.022155
0.021692
0.021216
0.020717
0.020198
0.019650
0.019129
0.000000
0.125000
0.067548
0.050744
0.041803
0.038633
0.036499
0.034863
0.033785
0.032999
0.032500
0.032168
0.032023
0.031877
0.031522
0.031623
0.030155
0.029513
0.026362
0.023879
0.022912
0.022132
0.021501
0.020961
0.020450
0.019926
0.019408
0.018885
0.018318
0.017785
0.000000
0.125000
0.067635
0.051267
0.040029
0.036091
0.033930
0.032120
0.030913
0.030193
0.029675
0.029403
0.029242
0.029193
0.028949
0.029135
0.027905
0.027295
0.024753
0.021843
0.020487
0.019630
0.018918
0.018247
0.017685
0.017160
0.016629
0.016098
0.015520
0.014971
0.000000
0.125000
0.068614
0.051591
0.037654
0.032213
0.030406
0.028906
0.027857
0.026901
0.026527
0.026085
0.025875
0.025801
0.025744
0.026005
0.025333
0.025408
0.024092
0.020699
0.018361
0.017071
0.016226
0.015579
0.014983
0.014485
0.013983
0.013455
0.012904
0.012379
0.000000
0.125000
0.047174
0.022965
0.017982
0.017456
0.015989
0.015046
0.014548
0.014297
0.013927
0.013598
0.013223
0.012911
0.012800
0.012770
0.013279
0.014997
0.010556
0.009301
0.008760
0.008067
0.007523
0.007140
0.006873
0.006587
0.006281
0.005993
0.005680
0.005385
0.000000
0.125000
0.000000
0.000000
0.000000
0.000000
0.000000
0.000000
0.000000
0.000000
0.000000
0.000000
0.000000
0.000000
0.000000
0.000000
0.000000
0.000000
0.000000
0.000000
0.000000
0.000000
0.000000
0.000000
0.000000
0.000000
0.000000
0.000000
0.000000
0.000000
0.000000
0.125000
0.068686
0.047922
0.037369
0.033946
0.031989
0.030542
0.029437
0.028632
0.028093
0.027479
0.027098
0.026728
0.026279
0.024925
0.021478
0.020420
0.017985
0.016888
0.016247
0.015677
0.015189
0.014735
0.014304
0.013879
0.013417
0.012918
0.012411
0.011976
0.000000
0.125000
0.080403
0.070625
0.058659
0.051504
0.047024
0.044390
0.043010
0.041761
0.041068
0.040550
0.040394
0.040278
0.039415
0.036897
0.024412
0.029117
0.027070
0.025927
0.025068
0.024293
0.023719
0.023249
0.022732
0.022209
0.021600
0.020933
0.020284
0.019780
0.000000
0.125000
0.083427
0.078743
0.068958
0.061331
0.056124
0.053049
0.051043
0.049743
0.048919
0.048454
0.048363
0.048129
0.046902
0.043580
0.024552
0.035003
0.032711
0.031653
0.030940
0.030263
0.029778
0.029322
0.028843
0.028283
0.027659
0.026988
0.026338
0.025849
0.000000
0.125000
0.082604
0.078357
0.071045
0.065241
0.060430
0.057085
0.055138
0.053817
0.053060
0.052523
0.052329
0.051968
0.050764
0.047688
0.024797
0.039205
0.036555
0.035321
0.034570
0.033910
0.033438
0.033030
0.032583
0.032056
0.031447
0.030819
0.030212
0.029736
0.000000
0.125000
0.082153
0.077748
0.071511
0.066849
0.062820
0.059993
0.058251
0.056985
0.056161
0.055552
0.055253
0.054777
0.053697
0.050927
0.025274
0.042697
0.039839
0.038439
0.037544
0.036850
0.036399
0.036004
0.035557
0.035042
0.034462
0.033866
0.033290
0.032831
0.000000
0.125000
0.082055
0.077280
0.070999
0.066794
0.063487
0.061222
0.059730
0.058569
0.057744
0.057176
0.056912
0.056455
0.055590
0.053174
0.025893
0.045245
0.042323
0.040744
0.039640
0.038831
0.038318
0.037892
0.037385
0.036846
0.036273
0.035688
0.035116
0.034649
0.000000
0.125000
0.082078
0.077115
0.070802
0.066831
0.063811
0.061803
0.060597
0.059504
0.058798
0.058254
0.058019
0.057588
0.056843
0.054631
0.026253
0.047001
0.044047
0.042483
0.041317
0.040419
0.039853
0.039386
0.038866
0.038304
0.037726
0.037146
0.036577
0.036108
0.000000
0.125000
0.081926
0.076766
0.070327
0.066330
0.063393
0.061510
0.060404
0.059481
0.058848
0.058415
0.058289
0.057989
0.057429
0.055441
0.026658
0.048045
0.045049
0.043454
0.042239
0.041293
0.040638
0.040100
0.039483
0.038885
0.038248
0.037634
0.037044
0.036563
0.000000
0.125000
0.081878
0.076806
0.070306
0.066218
0.063217
0.061308
0.060267
0.059435
0.058906
0.058536
0.058478
0.058240
0.057739
0.055766
0.026993
0.048523
0.045693
0.044241
0.043101
0.042160
0.041481
0.040877
0.040235
0.039594
0.038929
0.038294
0.037691
0.037207
0.000000
0.125000
0.081719
0.076539
0.069797
0.065342
0.061984
0.059802
0.058657
0.057824
0.057383
0.057143
0.057266
0.057264
0.056864
0.055075
0.026936
0.048041
0.045330
0.044040
0.042910
0.041829
0.040971
0.040249
0.039508
0.038809
0.038084
0.037409
0.036801
0.036297
0.000000
0.125000
0.081669
0.076234
0.068886
0.063819
0.059952
0.057401
0.056099
0.055122
0.054769
0.054688
0.055067
0.055284
0.054993
0.053469
0.026523
0.046758
0.044522
0.043299
0.041989
0.040658
0.039583
0.038728
0.037923
0.037177
0.036448
0.035759
0.035129
0.034627
0.000000
0.125000
0.081267
0.075058
0.066768
0.060649
0.055973
0.053020
0.051424
0.050410
0.050023
0.050110
0.050830
0.051424
0.051609
0.050590
0.025379
0.044615
0.042810
0.041384
0.039411
0.037617
0.036288
0.035311
0.034472
0.033684
0.032958
0.032272
0.031629
0.031110
0.000000
0.125000
0.079860
0.071162
0.061038
0.053875
0.048717
0.045520
0.043846
0.042693
0.042260
0.042373
0.043145
0.044062
0.045325
0.045567
0.024326
0.041747
0.039349
0.036845
0.034008
0.031873
0.030470
0.029515
0.028703