# vtk DataFile Version 3.0
LBM Simulation Data (speed_m_per_s) [FIXED_SCALING_v11]
ASCII
DATASET STRUCTURED_GRID
DIMENSIONS 30 30 30
POINTS 27000 float
0 0 0
1 0 0
2 0 0
3 0 0
4 0 0
5 0 0
6 0 0
7 0 0
8 0 0
9 0 0
10 0 0
11 0 0
12 0 0
13 0 0
14 0 0
15 0 0
16 0 0
17 0 0
18 0 0
19 0 0
20 0 0
21 0 0
22 0 0
23 0 0
24 0 0
25 0 0
26 0 0
27 0 0
28 0 0
29 0 0
0 1 0
1 1 0
2 1 0
3 1 0
4 1 0
5 1 0
6 1 0
7 1 0
8 1 0
9 1 0
10 1 0
11 1 0
12 1 0
13 1 0
14 1 0
15 1 0
16 1 0
17 1 0
18 1 0
19 1 0
20 1 0
21 1 0
22 1 0
23 1 0
24 1 0
25 1 0
26 1 0
27 1 0
28 1 0
29 1 0
0 2 0
1 2 0
2 2 0
3 2 0
4 2 0
5 2 0
6 2 0
7 2 0
8 2 0
9 2 0
10 2 0
11 2 0
12 2 0
13 2 0
14 2 0
15 2 0
16 2 0
17 2 0
18 2 0
19 2 0
20 2 0
21 2 0
22 2 0
23 2 0
24 2 0
25 2 0
26 2 0
27 2 0
28 2 0
29 2 0
0 3 0
1 3 0
2 3 0
3 3 0
4 3 0
5 3 0
6 3 0
7 3 0
8 3 0
9 3 0
10 3 0
11 3 0
12 3 0
13 3 0
14 3 0
15 3 0
16 3 0
17 3 0
18 3 0
19 3 0
20 3 0
21 3 0
22 3 0
23 3 0
24 3 0
25 3 0
26 3 0
27 3 0
28 3 0
29 3 0
0 4 0
1 4 0
2 4 0
3 4 0
4 4 0
5 4 0
6 4 0
7 4 0
8 4 0
9 4 0
10 4 0
11 4 0
12 4 0
13 4 0
14 4 0
15 4 0
16 4 0
17 4 0
18 4 0
19 4 0
20 4 0
21 4 0
22 4 0
23 4 0
24 4 0
25 4 0
26 4 0
27 4 0
28 4 0
29 4 0
0 5 0
1 5 0
2 5 0
3 5 0
4 5 0
5 5 0
6 5 0
7 5 0
8 5 0
9 5 0
10 5 0
11 5 0
12 5 0
13 5 0
14 5 0
15 5 0
16 5 0
17 5 0
18 5 0
19 5 0
20 5 0
21 5 0
22 5 0
23 5 0
24 5 0
25 5 0
26 5 0
27 5 0
28 5 0
29 5 0
0 6 0
1 6 0
2 6 0
3 6 0
4 6 0
5 6 0
6 6 0
7 6 0
8 6 0
9 6 0
10 6 0
11 6 0
12 6 0
13 6 0
14 6 0
15 6 0
16 6 0
17 6 0
18 6 0
19 6 0
20 6 0
21 6 0
22 6 0
23 6 0
24 6 0
25 6 0
26 6 0
27 6 0
28 6 0
29 6 0
0 7 0
1 7 0
2 7 0
3 7 0
4 7 0
5 7 0
6 7 0
7 7 0
8 7 0
9 7 0
10 7 0
11 7 0
12 7 0
13 7 0
14 7 0
15 7 0
16 7 0
17 7 0
18 7 0
19 7 0
20 7 0
21 7 0
22 7 0
23 7 0
24 7 0
25 7 0
26 7 0
27 7 0
28 7 0
29 7 0
0 8 0
1 8 0
2 8 0
3 8 0
4 8 0
5 8 0
6 8 0
7 8 0
8 8 0
9 8 0
10 8 0
11 8 0
12 8 0
13 8 0
14 8 0
15 8 0
16 8 0
17 8 0
18 8 0
19 8 0
20 8 0
21 8 0
22 8 0
23 8 0
24 8 0
25 8 0
26 8 0
27 8 0
28 8 0
29 8 0
0 9 0
1 9 0
2 9 0
3 9 0
4 9 0
5 9 0
6 9 0
7 9 0
8 9 0
9 9 0
10 9 0
11 9 0
12 9 0
13 9 0
14 9 0
15 9 0
16 9 0
17 9 0
18 9 0
19 9 0
20 9 0
21 9 0
22 9 0
23 9 0
24 9 0
25 9 0
26 9 0
27 9 0
28 9 0
29 9 0
0 10 0
1 10 0
2 10 0
3 10 0
4 10 0
5 10 0
6 10 0
7 10 0
8 10 0
9 10 0
10 10 0
11 10 0
12 10 0
13 10 0
14 10 0
15 10 0
16 10 0
17 10 0
18 10 0
19 10 0
20 10 0
21 10 0
22 10 0
23 10 0
24 10 0
25 10 0
26 10 0
27 10 0
28 10 0
29 10 0
0 11 0
1 11 0
2 11 0
3 11 0
4 11 0
5 11 0
6 11 0
7 11 0
8 11 0
9 11 0
10 11 0
11 11 0
12 11 0
13 11 0
14 11 0
15 11 0
16 11 0
17 11 0
18 11 0
19 11 0
20 11 0
21 11 0
22 11 0
23 11 0
24 11 0
25 11 0
26 11 0
27 11 0
28 11 0
29 11 0
0 12 0
1 12 0
2 12 0
3 12 0
4 12 0
5 12 0
6 12 0
7 12 0
8 12 0
9 12 0
10 12 0
11 12 0
12 12 0
13 12 0
14 12 0
15 12 0
16 12 0
17 12 0
18 12 0
19 12 0
20 12 0
21 12 0
22 12 0
23 12 0
24 12 0
25 12 0
26 12 0
27 12 0
28 12 0
29 12 0
0 13 0
1 13 0
2 13 0
3 13 0
4 13 0
5 13 0
6 13 0
7 13 0
8 13 0
9 13 0
10 13 0
11 13 0
12 13 0
13 13 0
14 13 0
15 13 0
16 13 0
17 13 0
18 13 0
19 13 0
20 13 0
21 13 0
22 13 0
23 13 0
24 13 0
25 13 0
26 13 0
27 13 0
28 13 0
29 13 0
0 14 0
1 14 0
2 14 0
3 14 0
4 14 0
5 14 0
6 14 0
7 14 0
8 14 0
9 14 0
10 14 0
11 14 0
12 14 0
13 14 0
14 14 0
15 14 0
16 14 0
17 14 0
18 14 0
19 14 0
20 14 0
21 14 0
22 14 0
23 14 0
24 14 0
25 14 0
26 14 0
27 14 0
28 14 0
29 14 0
0 15 0
1 15 0
2 15 0
3 15 0
4 15 0
5 15 0
6 15 0
7 15 0
8 15 0
9 15 0
10 15 0
11 15 0
12 15 0
13 15 0
14 15 0
15 15 0
16 15 0
17 15 0
18 15 0
19 15 0
20 15 0
21 15 0
22 15 0
23 15 0
24 15 0
25 15 0
26 15 0
27 15 0
28 15 0
29 15 0
0 16 0
1 16 0
2 16 0
3 16 0
4 16 0
5 16 0
6 16 0
7 16 0
8 16 0
9 16 0
10 16 0
11 16 0
12 16 0
13 16 0
14 16 0
15 16 0
16 16 0
17 16 0
18 16 0
19 16 0
20 16 0
21 16 0
22 16 0
23 16 0
24 16 0
25 16 0
26 16 0
27 16 0
28 16 0
29 16 0
0 17 0
1 17 0
2 17 0
3 17 0
4 17 0
5 17 0
6 17 0
7 17 0
8 17 0
9 17 0
10 17 0
11 17 0
12 17 0
13 17 0
14 17 0
15 17 0
16 17 0
17 17 0
18 17 0
19 17 0
20 17 0
21 17 0
22 17 0
23 17 0
24 17 0
25 17 0
26 17 0
27 17 0
28 17 0
29 17 0
0 18 0
1 18 0
2 18 0
3 18 0
4 18 0
5 18 0
6 18 0
7 18 0
8 18 0
9 18 0
10 18 0
11 18 0
12 18 0
13 18 0
14 18 0
15 18 0
16 18 0
17 18 0
18 18 0
19 18 0
20 18 0
21 18 0
22 18 0
23 18 0
24 18 0
25 18 0
26 18 0
27 18 0
28 18 0
29 18 0
0 19 0
1 19 0
2 19 0
3 19 0
4 19 0
5 19 0
6 19 0
7 19 0
8 19 0
9 19 0
10 19 0
11 19 0
12 19 0
13 19 0
14 19 0
15 19 0
16 19 0
17 19 0
18 19 0
19 19 0
20 19 0
21 19 0
22 19 0
23 19 0
24 19 0
25 19 0
26 19 0
27 19 0
28 19 0
29 19 0
0 20 0
1 20 0
2 20 0
3 20 0
4 20 0
5 20 0
6 20 0
7 20 0
8 20 0
9 20 0
10 20 0
11 20 0
12 20 0
13 20 0
14 20 0
15 20 0
16 20 0
17 20 0
18 20 0
19 20 0
20 20 0
21 20 0
22 20 0
23 20 0
24 20 0
25 20 0
26 20 0
27 20 0
28 20 0
29 20 0
0 21 0
1 21 0
2 21 0
3 21 0
4 21 0
5 21 0
6 21 0
7 21 0
8 21 0
9 21 0
10 21 0
11 21 0
12 21 0
13 21 0
14 21 0
15 21 0
16 21 0
17 21 0
18 21 0
19 21 0
20 21 0
21 21 0
22 21 0
23 21 0
24 21 0
25 21 0
26 21 0
27 21 0
28 21 0
29 21 0
0 22 0
1 22 0
2 22 0
3 22 0
4 22 0
5 22 0
6 22 0
7 22 0
8 22 0
9 22 0
10 22 0
11 22 0
12 22 0
13 22 0
14 22 0
15 22 0
16 22 0
17 22 0
18 22 0
19 22 0
20 22 0
21 22 0
22 22 0
23 22 0
24 22 0
25 22 0
26 22 0
27 22 0
28 22 0
29 22 0
0 23 0
1 23 0
2 23 0
3 23 0
4 23 0
5 23 0
6 23 0
7 23 0
8 23 0
9 23 0
10 23 0
11 23 0
12 23 0
13 23 0
14 23 0
15 23 0
16 23 0
17 23 0
18 23 0
19 23 0
20 23 0
21 23 0
22 23 0
23 23 0
24 23 0
25 23 0
26 23 0
27 23 0
28 23 0
29 23 0
0 24 0
1 24 0
2 24 0
3 24 0
4 24 0
5 24 0
6 24 0
7 24 0
8 24 0
9 24 0
10 24 0
11 24 0
12 24 0
13 24 0
14 24 0
15 24 0
16 24 0
17 24 0
18 24 0
19 24 0
20 24 0
21 24 0
22 24 0
23 24 0
24 24 0
25 24 0
26 24 0
27 24 0
28 24 0
29 24 0
0 25 0
1 25 0
2 25 0
3 25 0
4 25 0
5 25 0
6 25 0
7 25 0
8 25 0
9 25 0
10 25 0
11 25 0
12 25 0
13 25 0
14 25 0
15 25 0
16 25 0
17 25 0
18 25 0
19 25 0
20 25 0
21 25 0
22 25 0
23 25 0
24 25 0
25 25 0
26 25 0
27 25 0
28 25 0
29 25 0
0 26 0
1 26 0
2 26 0
3 26 0
4 26 0
5 26 0
6 26 0
7 26 0
8 26 0
9 26 0
10 26 0
11 26 0
12 26 0
13 26 0
14 26 0
15 26 0
16 26 0
17 26 0
18 26 0
19 26 0
20 26 0
21 26 0
22 26 0
23 26 0
24 26 0
25 26 0
26 26 0
27 26 0
28 26 0
29 26 0
0 27 0
1 27 0
2 27 0
3 27 0
4 27 0
5 27 0
6 27 0
7 27 0
8 27 0
9 27 0
10 27 0
11 27 0
12 27 0
13 27 0
14 27 0
15 27 0
16 27 0
17 27 0
18 27 0
19 27 0
20 27 0
21 27 0
22 27 0
23 27 0
24 27 0
25 27 0
26 27 0
27 27 0
28 27 0
29 27 0
0 28 0
1 28 0
2 28 0
3 28 0
4 28 0
5 28 0
6 28 0
7 28 0
8 28 0
9 28 0
10 28 0
11 28 0
12 28 0
13 28 0
14 28 0
15 28 0
16 28 0
17 28 0
18 28 0
19 28 0
20 28 0
21 28 0
22 28 0
23 28 0
24 28 0
25 28 0
26 28 0
27 28 0
28 28 0
29 28 0
0 29 0
1 29 0
2 29 0
3 29 0
4 29 0
5 29 0
6 29 0
7 29 0
8 29 0
9 29 0
10 29 0
11 29 0
12 29 0
13 29 0
14 29 0
15 29 0
16 29 0
17 29 0
18 29 0
19 29 0
20 29 0
21 29 0
22 29 0
23 29 0
24 29 0
25 29 0
26 29 0
27 29 0
28 29 0
29 29 0
0 0 1
1 0 1
2 0 1
3 0 1
4 0 1
5 0 1
6 0 1
7 0 1
8 0 1
9 0 1
10 0 1
11 0 1
12 0 1
13 0 1
14 0 1
15 0 1
16 0 1
17 0 1
18 0 1
19 0 1
20 0 1
21 0 1
22 0 1
23 0 1
24 0 1
25 0 1
26 0 1
27 0 1
28 0 1
29 0 1
0 1 1
1 1 1
2 1 1
3 1 1
4 1 1
5 1 1
6 1 1
7 1 1
8 1 1
9 1 1
10 1 1
11 1 1
12 1 1
13 1 1
14 1 1
15 1 1
16 1 1
17 1 1
18 1 1
19 1 1
20 1 1
21 1 1
22 1 1
23 1 1
24 1 1
25 1 1
26 1 1
27 1 1
28 1 1
29 1 1
0 2 1
1 2 1
2 2 1
3 2 1
4 2 1
5 2 1
6 2 1
7 2 1
8 2 1
9 2 1
10 2 1
11 2 1
12 2 1
13 2 1
14 2 1
15 2 1
16 2 1
17 2 1
18 2 1
19 2 1
20 2 1
21 2 1
22 2 1
23 2 1
24 2 1
25 2 1
26 2 1
27 2 1
28 2 1
29 2 1
0 3 1
1 3 1
2 3 1
3 3 1
4 3 1
5 3 1
6 3 1
7 3 1
8 3 1
9 3 1
10 3 1
11 3 1
12 3 1
13 3 1
14 3 1
15 3 1
16 3 1
17 3 1
18 3 1
19 3 1
20 3 1
21 3 1
22 3 1
23 3 1
24 3 1
25 3 1
26 3 1
27 3 1
28 3 1
29 3 1
0 4 1
1 4 1
2 4 1
3 4 1
4 4 1
5 4 1
6 4 1
7 4 1
8 4 1
9 4 1
10 4 1
11 4 1
12 4 1
13 4 1
14 4 1
15 4 1
16 4 1
17 4 1
18 4 1
19 4 1
20 4 1
21 4 1
22 4 1
23 4 1
24 4 1
25 4 1
26 4 1
27 4 1
28 4 1
29 4 1
0 5 1
1 5 1
2 5 1
3 5 1
4 5 1
5 5 1
6 5 1
7 5 1
8 5 1
9 5 1
10 5 1
11 5 1
12 5 1
13 5 1
14 5 1
15 5 1
16 5 1
17 5 1
18 5 1
19 5 1
20 5 1
21 5 1
22 5 1
23 5 1
24 5 1
25 5 1
26 5 1
27 5 1
28 5 1
29 5 1
0 6 1
1 6 1
2 6 1
3 6 1
4 6 1
5 6 1
6 6 1
7 6 1
8 6 1
9 6 1
10 6 1
11 6 1
12 6 1
13 6 1
14 6 1
15 6 1
16 6 1
17 6 1
18 6 1
19 6 1
20 6 1
21 6 1
22 6 1
23 6 1
24 6 1
25 6 1
26 6 1
27 6 1
28 6 1
29 6 1
0 7 1
1 7 1
2 7 1
3 7 1
4 7 1
5 7 1
6 7 1
7 7 1
8 7 1
9 7 1
10 7 1
11 7 1
12 7 1
13 7 1
14 7 1
15 7 1
16 7 1
17 7 1
18 7 1
19 7 1
20 7 1
21 7 1
22 7 1
23 7 1
24 7 1
25 7 1
26 7 1
27 7 1
28 7 1
29 7 1
0 8 1
1 8 1
2 8 1
3 8 1
4 8 1
5 8 1
6 8 1
7 8 1
8 8 1
9 8 1
10 8 1
11 8 1
12 8 1
13 8 1
14 8 1
15 8 1
16 8 1
17 8 1
18 8 1
19 8 1
20 8 1
21 8 1
22 8 1
23 8 1
24 8 1
25 8 1
26 8 1
27 8 1
28 8 1
29 8 1
0 9 1
1 9 1
2 9 1
3 9 1
4 9 1
5 9 1
6 9 1
7 9 1
8 9 1
9 9 1
10 9 1
11 9 1
12 9 1
13 9 1
14 9 1
15 9 1
16 9 1
17 9 1
18 9 1
19 9 1
20 9 1
21 9 1
22 9 1
23 9 1
24 9 1
25 9 1
26 9 1
27 9 1
28 9 1
29 9 1
0 10 1
1 10 1
2 10 1
3 10 1
4 10 1
5 10 1
6 10 1
7 10 1
8 10 1
9 10 1
10 10 1
11 10 1
12 10 1
13 10 1
14 10 1
15 10 1
16 10 1
17 10 1
18 10 1
19 10 1
20 10 1
21 10 1
22 10 1
23 10 1
24 10 1
25 10 1
26 10 1
27 10 1
28 10 1
29 10 1
0 11 1
1 11 1
2 11 1
3 11 1
4 11 1
5 11 1
6 11 1
7 11 1
8 11 1
9 11 1
10 11 1
11 11 1
12 11 1
13 11 1
14 11 1
15 11 1
16 11 1
17 11 1
18 11 1
19 11 1
20 11 1
21 11 1
22 11 1
23 11 1
24 11 1
25 11 1
26 11 1
27 11 1
28 11 1
29 11 1
0 12 1
1 12 1
2 12 1
3 12 1
4 12 1
5 12 1
6 12 1
7 12 1
8 12 1
9 12 1
10 12 1
11 12 1
12 12 1
13 12 1
14 12 1
15 12 1
16 12 1
17 12 1
18 12 1
19 12 1
20 12 1
21 12 1
22 12 1
23 12 1
24 12 1
25 12 1
26 12 1
27 12 1
28 12 1
29 12 1
0 13 1
1 13 1
2 13 1
3 13 1
4 13 1
5 13 1
6 13 1
7 13 1
8 13 1
9 13 1
10 13 1
11 13 1
12 13 1
13 13 1
14 13 1
15 13 1
16 13 1
17 13 1
18 13 1
19 13 1
20 13 1
21 13 1
22 13 1
23 13 1
24 13 1
25 13 1
26 13 1
27 13 1
28 13 1
29 13 1
0 14 1
1 14 1
2 14 1
3 14 1
4 14 1
5 14 1
6 14 1
7 14 1
8 14 1
9 14 1
10 14 1
11 14 1
12 14 1
13 14 1
14 14 1
15 14 1
16 14 1
17 14 1
18 14 1
19 14 1
20 14 1
21 14 1
22 14 1
23 14 1
24 14 1
25 14 1
26 14 1
27 14 1
28 14 1
29 14 1
0 15 1
1 15 1
2 15 1
3 15 1
4 15 1
5 15 1
6 15 1
7 15 1
8 15 1
9 15 1
10 15 1
11 15 1
12 15 1
[...]
POINT_DATA 27000
SCALARS speed_m_per_s float 1
LOOKUP_TABLE default
0.125000
0.000000
0.000000
0.000000
0.000000
0.000000
0.000000
0.000000
0.000000
0.000000
0.000000
0.000000
0.000000
0.000000
0.000000
0.000000
0.000000
0.000000
0.000000
0.000000
0.000000
0.000000
0.000000
0.000000
0.000000
0.000000
0.000000
0.000000
0.000000
0.000000
0.125000
0.000000
0.000000
0.000000
0.000000
0.000000
0.000000
0.000000
0.000000
0.000000
0.000000
0.000000
0.000000
0.000000
0.000000
0.000000
0.000000
0.000000
0.000000
0.000000
0.000000
0.000000
0.000000
0.000000
0.000000
0.000000
0.000000
0.000000
0.000000
0.000000
0.125000
0.000000
0.000000
0.000000
0.000000
0.000000
0.000000
0.000000
0.000000
0.000000
0.000000
0.000000
0.000000
0.000000
0.000000
0.000000
0.000000
0.000000
0.000000
0.000000
0.000000
0.000000
0.000000
0.000000
0.000000
0.000000
0.000000
0.000000
0.000000
0.000000
0.125000
0.000000
0.000000
0.000000
0.000000
0.000000
0.000000
0.000000
0.000000
0.000000
0.000000
0.000000
0.000000
0.000000
0.000000
0.000000
0.000000
0.000000
0.000000
0.000000
0.000000
0.000000
0.000000
0.000000
0.000000
0.000000
0.000000
0.000000
0.000000
0.000000
0.125000
0.000000
0.000000
0.000000
0.000000
0.000000
0.000000
0.000000
0.000000
0.000000
0.000000
0.000000
0.000000
0.000000
0.000000
0.000000
0.000000
0.000000
0.000000
0.000000
0.000000
0.000000
0.000000
0.000000
0.000000
0.000000
0.000000
0.000000
0.000000
0.000000
0.125000
0.000000
0.000000
0.000000
0.000000
0.000000
0.000000
0.000000
0.000000
0.000000
0.000000
0.000000
0.000000
0.000000
0.000000
0.000000
0.000000
0.000000
0.000000
0.000000
0.000000
0.000000
0.000000
0.000000
0.000000
0.000000
0.000000
0.000000
0.000000
0.000000
0.125000
0.000000
0.000000
0.000000
0.000000
0.000000
0.000000
0.000000
0.000000
0.000000
0.000000
0.000000
0.000000
0.000000
0.000000
0.000000
0.000000
0.000000
0.000000
0.000000
0.000000
0.000000
0.000000
0.000000
0.000000
0.000000
0.000000
0.000000
0.000000
0.000000
0.125000
0.000000
0.000000
0.000000
0.000000
0.000000
0.000000
0.000000
0.000000
0.000000
0.000000
0.000000
0.000000
0.000000
0.000000
0.000000
0.000000
0.000000
0.000000
0.000000
0.000000
0.000000
0.000000
0.000000
0.000000
0.000000
0.000000
0.000000
0.000000
0.000000
0.125000
0.000000
0.000000
0.000000
0.000000
0.000000
0.000000
0.000000
0.000000
0.000000
0.000000
0.000000
0.000000
0.000000
0.000000
0.000000
0.000000
0.000000
0.000000
0.000000
0.000000
0.000000
0.000000
0.000000
0.000000
0.000000
0.000000
0.000000
0.000000
0.000000
0.125000
0.000000
0.000000
0.000000
0.000000
0.000000
0.000000
0.000000
0.000000
0.000000
0.000000
0.000000
0.000000
0.000000
0.000000
0.000000
0.000000
0.000000
0.000000
0.000000
0.000000
0.000000
0.000000
0.000000
0.000000
0.000000
0.000000
0.000000
0.000000
0.000000
0.125000
0.000000
0.000000
0.000000
0.000000
0.000000
0.000000
0.000000
0.000000
0.000000
0.000000
0.000000
0.000000
0.000000
0.000000
0.000000
0.000000
0.000000
0.000000
0.000000
0.000000
0.000000
0.000000
0.000000
0.000000
0.000000
0.000000
0.000000
0.000000
0.000000
0.125000
0.000000
0.000000
0.000000
0.000000
0.000000
0.000000
0.000000
0.000000
0.000000
0.000000
0.000000
0.000000
0.000000
0.000000
0.000000
0.000000
0.000000
0.000000
0.000000
0.000000
0.000000
0.000000
0.000000
0.000000
0.000000
0.000000
0.000000
0.000000
0.000000
0.125000
0.000000
0.000000
0.000000
0.000000
0.000000
0.000000
0.000000
0.000000
0.000000
0.000000
0.000000
0.000000
0.000000
0.000000
0.000000
0.000000
0.000000
0.000000
0.000000
0.000000
0.000000
0.000000
0.000000
0.000000
0.000000
0.000000
0.000000
0.000000
0.000000
0.125000
0.000000
0.000000
0.000000
0.000000
0.000000
0.000000
0.000000
0.000000
0.000000
0.000000
0.000000
0.000000
0.000000
0.000000
0.000000
0.000000
0.000000
0.000000
0.000000
0.000000
0.000000
0.000000
0.000000
0.000000
0.000000
0.000000
0.000000
0.000000
0.000000
0.125000
0.000000
0.000000
0.000000
0.000000
0.000000
0.000000
0.000000
0.000000
0.000000
0.000000
0.000000
0.000000
0.000000
0.000000
0.000000
0.000000
0.000000
0.000000
0.000000
0.000000
0.000000
0.000000
0.000000
0.000000
0.000000
0.000000
0.000000
0.000000
0.000000
0.125000
0.000000
0.000000
0.000000
0.000000
0.000000
0.000000
0.000000
0.000000
0.000000
0.000000
0.000000
0.000000
0.000000
0.000000
0.000000
0.000000
0.000000
0.000000
0.000000
0.000000
0.000000
0.000000
0.000000
0.000000
0.000000
0.000000
0.000000
0.000000
0.000000
0.125000
0.000000
0.000000
0.000000
0.000000
0.000000
0.000000
0.000000
0.000000
0.000000
0.000000
0.000000
0.000000
0.000000
0.000000
0.000000
0.000000
0.000000
0.000000
0.000000
0.000000
0.000000
0.000000
0.000000
0.000000
0.000000
0.000000
0.000000
0.000000
0.000000
0.125000
0.000000
0.000000
0.000000
0.000000
0.000000
0.000000
0.000000
0.000000
0.000000
0.000000
0.000000
0.000000
0.000000
0.000000
0.000000
0.000000
0.000000
0.000000
0.000000
0.000000
0.000000
0.000000
0.000000
0.000000
0.000000
0.000000
0.000000
0.000000
0.000000
0.125000
0.000000
0.000000
0.000000
0.000000
0.000000
0.000000
0.000000
0.000000
0.000000
0.000000
0.000000
0.000000
0.000000
0.000000
0.000000
0.000000
0.000000
0.000000
0.000000
0.000000
0.000000
0.000000
0.000000
0.000000
0.000000
0.000000
0.000000
0.000000
0.000000
0.125000
0.000000
0.000000
0.000000
0.000000
0.000000
0.000000
0.000000
0.000000
0.000000
0.000000
0.000000
0.000000
0.000000
0.000000
0.000000
0.000000
0.000000
0.000000
0.000000
0.000000
0.000000
0.000000
0.000000
0.000000
0.000000
0.000000
0.000000
0.000000
0.000000
0.125000
0.000000
0.000000
0.000000
0.000000
0.000000
0.000000
0.000000
0.000000
0.000000
0.000000
0.000000
0.000000
0.000000
0.000000
0.000000
0.000000
0.000000
0.000000
0.000000
0.000000
0.000000
0.000000
0.000000
0.000000
0.000000
0.000000
0.000000
0.000000
0.000000
0.125000
0.000000
0.000000
0.000000
0.000000
0.000000
0.000000
0.000000
0.000000
0.000000
0.000000
0.000000
0.000000
0.000000
0.000000
0.000000
0.000000
0.000000
0.000000
0.000000
0.000000
0.000000
0.000000
0.000000
0.000000
0.000000
0.000000
0.000000
0.000000
0.000000
0.125000
0.000000
0.000000
0.000000
0.000000
0.000000
0.000000
0.000000
0.000000
0.000000
0.000000
0.000000
0.000000
0.000000
0.000000
0.000000
0.000000
0.000000
0.000000
0.000000
0.000000
0.000000
0.000000
0.000000
0.000000
0.000000
0.000000
0.000000
0.000000
0.000000
0.125000
0.000000
0.000000
0.000000
0.000000
0.000000
0.000000
0.000000
0.000000
0.000000
0.000000
0.000000
0.000000
0.000000
0.000000
0.000000
0.000000
0.000000
0.000000
0.000000
0.000000
0.000000
0.000000
0.000000
0.000000
0.000000
0.000000
0.000000
0.000000
0.000000
0.125000
0.000000
0.000000
0.000000
0.000000
0.000000
0.000000
0.000000
0.000000
0.000000
0.000000
0.000000
0.000000
0.000000
0.000000
0.000000
0.000000
0.000000
0.000000
0.000000
0.000000
0.000000
0.000000
0.000000
0.000000
0.000000
0.000000
0.000000
0.000000
0.000000
0.125000
0.000000
0.000000
0.000000
0.000000
0.000000
0.000000
0.000000
0.000000
0.000000
0.000000
0.000000
0.000000
0.000000
0.000000
0.000000
0.000000
0.000000
0.000000
0.000000
0.000000
0.000000
0.000000
0.000000
0.000000
0.000000
0.000000
0.000000
0.000000
0.000000
0.125000
0.000000
0.000000
0.000000
0.000000
0.000000
0.000000
0.000000
0.000000
0.000000
0.000000
0.000000
0.000000
0.000000
0.000000
0.000000
0.000000
0.000000
0.000000
0.000000
0.000000
0.000000
0.000000
0.000000
0.000000
0.000000
0.000000
0.000000
0.000000
0.000000
0.125000
0.000000
0.000000
0.000000
0.000000
0.000000
0.000000
0.000000
0.000000
0.000000
0.000000
0.000000
0.000000
0.000000
0.000000
0.000000
0.000000
0.000000
0.000000
0.000000
0.000000
0.000000
0.000000
0.000000
0.000000
0.000000
0.000000
0.000000
0.000000
0.000000
0.125000
0.000000
0.000000
0.000000
0.000000
0.000000
0.000000
0.000000
0.000000
0.000000
0.000000
0.000000
0.000000
0.000000
0.000000
0.000000
0.000000
0.000000
0.000000
0.000000
0.000000
0.000000
0.000000
0.000000
0.000000
0.000000
0.000000
0.000000
0.000000
0.000000
0.125000
0.000000
0.000000
0.000000
0.000000
0.000000
0.000000
0.000000
0.000000
0.000000
0.000000
0.000000
0.000000
0.000000
0.000000
0.000000
0.000000
0.000000
0.000000
0.000000
0.000000
0.000000
0.000000
0.000000
0.000000
0.000000
0.000000
0.000000
0.000000
0.000000
0.125000
0.000000
0.000000
0.000000
0.000000
0.000000
0.000000
0.000000
0.000000
0.000000
0.000000
0.000000
0.000000
0.000000
0.000000
0.000000
0.000000
0.000000
0.000000
0.000000
0.000000
0.000000
0.000000
0.000000
0.000000
0.000000
0.000000
0.000000
0.000000
0.000000
0.125000
0.065426
0.038472
0.027931
0.026457
0.025414
0.024355
0.023555
0.022920
0.022361
0.021729
0.021111
0.020501
0.020056
0.018601
0.017343
0.015942
0.013091
0.012441
0.011955
0.011456
0.010950
0.010495
0.010085
0.009675
0.009258
0.008845
0.008429
0.008095
0.000000
0.125000
0.069156
0.047996
0.036918
0.033181
0.031111
0.029523
0.028500
0.027611
0.026997
0.026485
0.026062
0.025711
0.025330
0.024224
0.021194
0.020168
0.017467
0.016254
0.015465
0.014864
0.014332
0.013878
0.013429
0.013004
0.012551
0.012078
0.011592
0.011173
0.000000
0.125000
0.069638
0.050216
0.038621
0.034163
0.032232
0.030688
0.029412
0.028590
0.028000
0.027599
0.027287
0.027042
0.026757
0.025974
0.023323
0.022351
0.019137
0.017356
0.016546
0.016052
0.015632
0.015215
0.014822
0.014414
0.014000
0.013557
0.013090
0.012676
0.000000
0.125000
0.069269
0.049694
0.038884
0.035601
0.033833
0.032091
0.030868
0.030028
0.029494
0.029066
0.028755
0.028506
0.028286
0.027913
0.025475
0.024935
0.021366
0.018990
0.018083
0.017588
0.017186
0.016814
0.016456
0.016076
0.015684
0.015272
0.014830
0.014424
0.000000
0.125000
0.069041
0.048918
0.038552
0.035846
0.034383
0.032926
0.031811
0.031023
0.030468
0.030051
0.029737
0.029459
0.029285
0.029316
0.027152
0.027038
0.023060
0.020193
0.019129
0.018612
0.018220
0.017847
0.017495
0.017127
0.016748
0.016346
0.015921
0.015519
0.000000
0.125000
0.069028
0.048617
0.038333
0.035850
0.034801
0.033646
0.032612
0.031889
0.031335
0.030928
0.030610
0.030295
0.030139
0.030472
0.028466
0.028651
0.024530
0.021311
0.020134
0.019605
0.019208
0.018826
0.018462
0.018098
0.017728
0.017336
0.016917
0.016514
0.000000
0.125000
0.068976
0.048391
0.038049
0.035653
0.034736
0.033695
0.032812
0.032125
0.031642
0.031248
0.030956
0.030684
0.030553
0.031113
0.029316
0.029710
0.025418
0.022001
0.020739
0.020163
0.019738
0.019314
0.018935
0.018547
0.018169
0.017775
0.017349
0.016940
0.000000
0.125000
0.068953
0.048390
0.038034
0.035670
0.034794
0.033824
0.032993
0.032409
0.031941
0.031588
0.031313
0.031047
0.030928
0.031579
0.029868
0.030393
0.026104
0.022616
0.021333
0.020747
0.020305
0.019873
0.019470
0.019087
0.018696
0.018303
0.017873
0.017462
0.000000
0.125000
0.068869
0.048312
0.037946
0.035511
0.034572
0.033577
0.032785
0.032245
0.031841
0.031531
0.031302
0.031078
0.030999
0.031680
0.030158
0.030596
0.026361
0.022879
0.021576
0.020935
0.020458
0.019985
0.019562
0.019136
0.018722
0.018309
0.017863
0.017434
0.000000
0.125000
0.068775
0.048336
0.037925
0.035410
0.034346
0.033217
0.032384
0.031832
0.031470
0.031196
0.031010
0.030876
0.030732
0.031388
0.030022
0.030326
0.026256
0.022914
0.021647
0.020950
0.020407
0.019914
0.019454
0.019019
0.018583
0.018155
0.017708
0.017272
0.000000
0.125000
0.068711
0.048329
0.037751
0.034998
0.033747
0.032452
0.031573
0.030943
0.030623
0.030405
0.030332
0.030318
0.030098
0.030788
0.029439
0.029568
0.025944
0.022734
0.021380
0.020559
0.019889
0.019317
0.018805
0.018331
0.017877
0.017434
0.016970
0.016529
0.000000
0.125000
0.068479
0.047837
0.037094
0.033890
0.032321
0.030867
0.029859
0.029198
0.028811
0.028623
0.028648
0.028693
0.028519
0.029368
0.028133
0.028149
0.024903
0.021891
0.020274
0.019272
0.018497
0.017865
0.017324
0.016822
0.016373
0.015927
0.015443
0.014988
0.000000
0.125000
0.068105
0.046859
0.035866
0.032309
0.030541
0.028944
0.027892
0.027115
0.026699
0.026514
0.026559
0.026650
0.026786
0.027760
0.026796
0.027257
0.023976
0.020973
0.019043
0.017783
0.016880
0.016200
0.015615
0.015126
0.014662
0.014218
0.013738
0.013271
0.000000
0.125000
0.066286
0.044007
0.032618
0.028019
0.025690
0.024039
0.023082
0.022373
0.021922
0.021517
0.021295
0.021030
0.021128
0.022018
0.023223
0.023668
0.019297
0.016401
0.014684
0.013475
0.012615
0.012002
0.011485
0.011015
0.010563
0.010131
0.009677
0.009240
0.000000
0.125000
0.047912
0.027136
0.018543
0.014693
0.012230
0.010254
0.009003
0.008238
0.007716
0.007355
0.007119
0.006971
0.006825
0.007695
0.010803
0.013037
0.009844
0.008014
0.006759
0.005805
0.005078
0.004558
0.004208
0.003934
0.003690
0.003496
0.003306
0.003107
0.000000
0.125000
0.067667
0.045602
0.031050
0.026923
0.025061
0.023646
0.022803
0.022193
0.021693
0.021131
0.020614
0.020041
0.019725
0.018618
0.019911
0.019964
0.016105
0.014093
0.013059
0.012271
0.011574
0.010961
0.010457
0.010000
0.009534
0.009084
0.008615
0.008196
0.000000
0.125000
0.069199
0.052019
0.040700
0.036307
0.033856
0.031952
0.030783
0.029924
0.029396
0.028935
0.028669
0.028442
0.027965
0.027555
0.025721
0.025570
0.023140
0.021030
0.019649
0.018563
0.017683
0.017039
0.016452
0.015922
0.015379
0.014828
0.014268
0.013749
0.000000
0.125000
0.068412
0.051557
0.041454
0.037604
0.035587
0.033895
0.032668
0.031767
0.031189
0.030806
0.030634
0.030463
0.029815
0.029562
0.027947
0.027229
0.024299
0.022115
0.020948
0.020189
0.019592
0.019036
0.018498
0.017974
0.017443
0.016918
0.016361
0.015842
0.000000
0.125000
0.068006
0.050293
0.041082
0.038622
0.037234
0.035721
0.034559
0.033722
0.033176
0.032780
0.032530
0.032328
0.031850
0.031877
0.030192
0.029775
0.026284
0.023609
0.022646
0.022128
0.021671
0.021217
0.020759
0.020276
0.019783
0.019282
0.018749
0.018246
0.000000
0.125000
0.067877
0.049224
0.040178
0.038301
0.037414
0.036294
0.035404
0.034662
0.034141
0.033709
0.033392
0.033136
0.032924
0.033281
0.031638
0.031608
0.027389
0.024267
0.023285
0.022888
0.022570
0.022235
0.021856
0.021431
0.020972
0.020495
0.019981
0.019490
0.000000
0.125000
0.067893
0.048777
0.039675
0.038002
0.037489
0.036700
0.035955
0.035343
0.034836
0.034400
0.034065
0.033785
0.033669
0.034304
0.032536
0.032812
0.028349
0.024900
0.023806
0.023445
0.023205
0.022914
0.022572
0.022184
0.021746
0.021283
0.020779
0.020286
0.000000
0.125000
0.067886
0.048607
0.039452
0.037845
0.037475
0.036778
0.036124
0.035520
0.035043
0.034599
0.034275
0.033999
0.033895
0.034678
0.032900
0.033354
0.028760
0.025177
0.024044
0.023705
0.023484
0.023206
0.022878
0.022506
0.022085
0.021635
0.021133
0.020640
0.000000
0.125000
0.067855
0.048607
0.039439
0.037809
0.037388
0.036630
0.035930
0.035335
0.034832
0.034408
0.034113
0.033861
0.033764
0.034572
0.032866
0.033283
0.028717
0.025140
0.023998
0.023625
0.023358
0.023044
0.022691
0.022296
0.021857
0.021397
0.020892
0.020394
0.000000
0.125000
0.067859
0.048952
0.039872
0.038110
0.037467
0.036461
0.035592
0.034948
0.034461
0.034044
0.033767
0.033538
0.033410
0.034072
0.032405
0.032678
0.028383
0.025016
0.023920
0.023504
0.023176
0.022805
0.022410
0.021993
0.021536
0.021060
0.020552
0.020056
0.000000
0.125000
0.067872
0.049491
0.040316
0.038050
0.036894
0.035586
0.034548
0.033774
0.033306
0.032947
0.032739
0.032590
0.032395
0.032857
0.031426
0.031408
0.027432
0.024371
0.023268
0.022693
0.022237
0.021772
0.021303
0.020829
0.020343
0.019843
0.019321
0.018824
0.000000
0.125000
0.068000
0.050835
0.041563
0.038214
0.035962
0.034268
0.033144
0.032357
0.031856
0.031555
0.031441
0.031349
0.031065
0.031329
0.029955
0.029555
0.026381
0.023735
0.022636
0.021779
0.021094
0.020527
0.020006
0.019485
0.018979
0.018476
0.017936
0.017426
0.000000
0.125000
0.068081
0.051335
0.039743
0.035577
0.033295
0.031432
0.030186
0.029466
0.028949
0.028709
0.028576
0.028576
0.028395
0.028734
0.027657
0.027229
0.024663
0.021598
0.020093
0.019154
0.018390
0.017692
0.017121
0.016601
0.016082
0.015571
0.015017
0.014491
0.000000
0.125000
0.069019
0.051619
0.037294
0.031646
0.029735
0.028197
0.027116
0.026164
0.025791
0.025377
0.025193
0.025167
0.025169
0.025561
0.025048
0.025242
0.023917
0.020376
0.017914
0.016546
0.015659
0.014991
0.014392
0.013898
0.013409
0.012901
0.012370
0.011867
0.000000
0.125000
0.047388
0.022823
0.017571
0.016998
0.015505
0.014547
0.014043
0.013797
0.013430
0.013115
0.012747
0.012453
0.012353
0.012387
0.013098
0.014841
0.010296
0.008933
0.008358
0.007646
0.007090
0.006704
0.006439
0.006162
0.005865
0.005588
0.005285
0.004998
0.000000
0.125000
0.000000
0.000000
0.000000
0.000000
0.000000
0.000000
0.000000
0.000000
0.000000
0.000000
0.000000
0.000000
0.000000
0.000000
0.000000
0.000000
0.000000
0.000000
0.000000
0.000000
0.000000
0.000000
0.000000
0.000000
0.000000
0.000000
0.000000
0.000000
0.000000
0.125000
0.069153
0.047995
0.036916
0.033193
0.031083
0.029548
0.028399
0.027567
0.027017
0.026412
0.026048
0.025718
0.025338
0.024188
0.021069
0.020010
0.017467
0.016230
0.015490
0.014860
0.014337
0.013865
0.013432
0.013009
0.012561
0.012080
0.011592
0.011170
0.000000
0.125000
0.081051
0.071141
0.058687
0.051014
0.046184
0.043355
0.041854
0.040541
0.039812
0.039292
0.039168
0.039130
0.038439
0.036247
0.024030
0.028830
0.026725
0.025447
0.024428
0.023517
0.022857
0.022336
0.021799
0.021269
0.020675
0.020031
0.019409
0.018925
0.000000
0.125000
0.084065
0.079393
0.069322
0.061223
0.055614
0.052271
0.050089
0.048685
0.047794
0.047323
0.047267
0.047147
0.046141
0.043174
0.024242
0.034935
0.032616
0.031468
0.030589
0.029755
0.029152
0.028621
0.028100
0.027527
0.026909
0.026257
0.025637
0.025167
0.000000
0.125000
0.083218
0.079012
0.071515
0.065341
0.060170
0.056558
0.054415
0.052975
0.052144
0.051602
0.051453
0.051221
0.050244
0.047486
0.024560
0.039287
0.036644
0.035324
0.034417
0.033601
0.033011
0.032515
0.032022
0.031470
0.030866
0.030251
0.029668
0.029212
0.000000
0.125000
0.082763
0.078393
0.071994
0.067029
0.062701
0.059644
0.057716
0.056348
0.055447
0.054842
0.054584
0.054240
0.053366
0.050871
0.025083
0.042885
0.040069
0.038595
0.037548
0.036718
0.036163
0.035697
0.035211
0.034678
0.034101
0.033519
0.032968
0.032526
0.000000
0.125000
0.082661
0.077904
0.071454
0.066981
0.063409
0.060954
0.059305
0.058057
0.057171
0.056612
0.056395
0.056066
0.055377
0.053203
0.025731
0.045496
0.042624
0.040961
0.039697
0.038751
0.038145
0.037658
0.037118
0.036562
0.035994
0.035424
0.034874
0.034426
0.000000
0.125000
0.082678
0.077725
0.071241
0.067013
0.063761
0.061602
0.060262
0.059116
0.058355
0.057840
0.057645
0.057331
0.056741
0.054746
0.026117
0.047312
0.044428
0.042785
0.041470
0.040451
0.039805
0.039302
0.038761
0.038198
0.037633
0.037075
0.036533
0.036084
0.000000
0.125000
0.082519
0.077360
0.070737
0.066482
0.063320
0.061306
0.060090
0.059127
0.058462
0.058065
0.057981
0.057794
0.057376
0.055591
0.026537
0.048377
0.045446
0.043760
0.042385
0.041309
0.040576
0.039995
0.039365
0.038763
0.038144
0.037550
0.036984
0.036523
0.000000
0.125000
0.082466
0.077393
0.070707
0.066366
0.063145
0.061127
0.059982
0.059138
0.058584
0.058265
0.058248
0.058118
0.057748
0.055962
0.026883
0.048884
0.046129
0.044604
0.043310
0.042248
0.041501
0.040867
0.040218
0.039587
0.038944
0.038337
0.037761
0.037297
0.000000
0.125000
0.082299
0.077106
0.070166
0.065447
0.061869
0.059579
0.058343
0.057504
0.057056
0.056877
0.057048
0.057156
0.056881
0.055274
0.026835
0.048396
0.045744
0.044368
0.043069
0.041857
0.040917
0.040155
0.039401
0.038705
0.038002
0.037352
0.036768
0.036283
0.000000
0.125000
0.082244
0.076781
0.069219
0.063887
0.059798
0.057150
0.055761
0.054797
0.054439
0.054432
0.054868
0.055196
0.055021
0.053667
0.026427
0.047107
0.044923
0.043622
0.042142
0.040678
0.039520
0.038628
0.037816
0.037080
0.036371
0.035711
0.035109
0.034625
0.000000
0.125000
0.081825
0.075564
0.067040
0.060647
0.055745
0.052693
0.051018
0.050024
0.049640
0.049806
0.050591
0.051307
0.051613
0.050751
0.025280
0.044927
0.043149
0.041623
0.039471
0.037526
0.036103
0.035080
0.034229
0.033447
0.032736
0.032074
0.031453
0.030954
0.000000
0.125000
0.080399
0.071625
0.061237
0.053804
0.048423
0.045136
0.043391
0.042261
0.041825
0.042016
0.042850
0.043903
0.045297
0.045707
0.024249
0.042023
0.039642
0.037002
0.033996
0.031715
0.030224
0.029233
0.028409