# vtk DataFile Version 3.0
LBM Simulation Data (speed_m_per_s) [FIXED_SCALING_v11]
ASCII
DATASET STRUCTURED_GRID
DIMENSIONS 30 30 30
POINTS 27000 float
0 0 0
1 0 0
2 0 0
3 0 0
4 0 0
5 0 0
6 0 0
7 0 0
8 0 0
9 0 0
10 0 0
11 0 0
12 0 0
13 0 0
14 0 0
15 0 0
16 0 0
17 0 0
18 0 0
19 0 0
20 0 0
21 0 0
22 0 0
23 0 0
24 0 0
25 0 0
26 0 0
27 0 0
28 0 0
29 0 0
0 1 0
1 1 0
2 1 0
3 1 0
4 1 0
5 1 0
6 1 0
7 1 0
8 1 0
9 1 0
10 1 0
11 1 0
12 1 0
13 1 0
14 1 0
15 1 0
16 1 0
17 1 0
18 1 0
19 1 0
20 1 0
21 1 0
22 1 0
23 1 0
24 1 0
25 1 0
26 1 0
27 1 0
28 1 0
29 1 0
0 2 0
1 2 0
2 2 0
3 2 0
4 2 0
5 2 0
6 2 0
7 2 0
8 2 0
9 2 0
10 2 0
11 2 0
12 2 0
13 2 0
14 2 0
15 2 0
16 2 0
17 2 0
18 2 0
19 2 0
20 2 0
21 2 0
22 2 0
23 2 0
24 2 0
25 2 0
26 2 0
27 2 0
28 2 0
29 2 0
0 3 0
1 3 0
2 3 0
3 3 0
4 3 0
5 3 0
6 3 0
7 3 0
8 3 0
9 3 0
10 3 0
11 3 0
12 3 0
13 3 0
14 3 0
15 3 0
16 3 0
17 3 0
18 3 0
19 3 0
20 3 0
21 3 0
22 3 0
23 3 0
24 3 0
25 3 0
26 3 0
27 3 0
28 3 0
29 3 0
0 4 0
1 4 0
2 4 0
3 4 0
4 4 0
5 4 0
6 4 0
7 4 0
8 4 0
9 4 0
10 4 0
11 4 0
12 4 0
13 4 0
14 4 0
15 4 0
16 4 0
17 4 0
18 4 0
19 4 0
20 4 0
21 4 0
22 4 0
23 4 0
24 4 0
25 4 0
26 4 0
27 4 0
28 4 0
29 4 0
0 5 0
1 5 0
2 5 0
3 5 0
4 5 0
5 5 0
6 5 0
7 5 0
8 5 0
9 5 0
10 5 0
11 5 0
12 5 0
13 5 0
14 5 0
15 5 0
16 5 0
17 5 0
18 5 0
19 5 0
20 5 0
21 5 0
22 5 0
23 5 0
24 5 0
25 5 0
26 5 0
27 5 0
28 5 0
29 5 0
0 6 0
1 6 0
2 6 0
3 6 0
4 6 0
5 6 0
6 6 0
7 6 0
8 6 0
9 6 0
10 6 0
11 6 0
12 6 0
13 6 0
14 6 0
15 6 0
16 6 0
17 6 0
18 6 0
19 6 0
20 6 0
21 6 0
22 6 0
23 6 0
24 6 0
25 6 0
26 6 0
27 6 0
28 6 0
29 6 0
0 7 0
1 7 0
2 7 0
3 7 0
4 7 0
5 7 0
6 7 0
7 7 0
8 7 0
9 7 0
10 7 0
11 7 0
12 7 0
13 7 0
14 7 0
15 7 0
16 7 0
17 7 0
18 7 0
19 7 0
20 7 0
21 7 0
22 7 0
23 7 0
24 7 0
25 7 0
26 7 0
27 7 0
28 7 0
29 7 0
0 8 0
1 8 0
2 8 0
3 8 0
4 8 0
5 8 0
6 8 0
7 8 0
8 8 0
9 8 0
10 8 0
11 8 0
12 8 0
13 8 0
14 8 0
15 8 0
16 8 0
17 8 0
18 8 0
19 8 0
20 8 0
21 8 0
22 8 0
23 8 0
24 8 0
25 8 0
26 8 0
27 8 0
28 8 0
29 8 0
0 9 0
1 9 0
2 9 0
3 9 0
4 9 0
5 9 0
6 9 0
7 9 0
8 9 0
9 9 0
10 9 0
11 9 0
12 9 0
13 9 0
14 9 0
15 9 0
16 9 0
17 9 0
18 9 0
19 9 0
20 9 0
21 9 0
22 9 0
23 9 0
24 9 0
25 9 0
26 9 0
27 9 0
28 9 0
29 9 0
0 10 0
1 10 0
2 10 0
3 10 0
4 10 0
5 10 0
6 10 0
7 10 0
8 10 0
9 10 0
10 10 0
11 10 0
12 10 0
13 10 0
14 10 0
15 10 0
16 10 0
17 10 0
18 10 0
19 10 0
20 10 0
21 10 0
22 10 0
23 10 0
24 10 0
25 10 0
26 10 0
27 10 0
28 10 0
29 10 0
0 11 0
1 11 0
2 11 0
3 11 0
4 11 0
5 11 0
6 11 0
7 11 0
8 11 0
9 11 0
10 11 0
11 11 0
12 11 0
13 11 0
14 11 0
15 11 0
16 11 0
17 11 0
18 11 0
19 11 0
20 11 0
21 11 0
22 11 0
23 11 0
24 11 0
25 11 0
26 11 0
27 11 0
28 11 0
29 11 0
0 12 0
1 12 0
2 12 0
3 12 0
4 12 0
5 12 0
6 12 0
7 12 0
8 12 0
9 12 0
10 12 0
11 12 0
12 12 0
13 12 0
14 12 0
15 12 0
16 12 0
17 12 0
18 12 0
19 12 0
20 12 0
21 12 0
22 12 0
23 12 0
24 12 0
25 12 0
26 12 0
27 12 0
28 12 0
29 12 0
0 13 0
1 13 0
2 13 0
3 13 0
4 13 0
5 13 0
6 13 0
7 13 0
8 13 0
9 13 0
10 13 0
11 13 0
12 13 0
13 13 0
14 13 0
15 13 0
16 13 0
17 13 0
18 13 0
19 13 0
20 13 0
21 13 0
22 13 0
23 13 0
24 13 0
25 13 0
26 13 0
27 13 0
28 13 0
29 13 0
0 14 0
1 14 0
2 14 0
3 14 0
4 14 0
5 14 0
6 14 0
7 14 0
8 14 0
9 14 0
10 14 0
11 14 0
12 14 0
13 14 0
14 14 0
15 14 0
16 14 0
17 14 0
18 14 0
19 14 0
20 14 0
21 14 0
22 14 0
23 14 0
24 14 0
25 14 0
26 14 0
27 14 0
28 14 0
29 14 0
0 15 0
1 15 0
2 15 0
3 15 0
4 15 0
5 15 0
6 15 0
7 15 0
8 15 0
9 15 0
10 15 0
11 15 0
12 15 0
13 15 0
14 15 0
15 15 0
16 15 0
17 15 0
18 15 0
19 15 0
20 15 0
21 15 0
22 15 0
23 15 0
24 15 0
25 15 0
26 15 0
27 15 0
28 15 0
29 15 0
0 16 0
1 16 0
2 16 0
3 16 0
4 16 0
5 16 0
6 16 0
7 16 0
8 16 0
9 16 0
10 16 0
11 16 0
12 16 0
13 16 0
14 16 0
15 16 0
16 16 0
17 16 0
18 16 0
19 16 0
20 16 0
21 16 0
22 16 0
23 16 0
24 16 0
25 16 0
26 16 0
27 16 0
28 16 0
29 16 0
0 17 0
1 17 0
2 17 0
3 17 0
4 17 0
5 17 0
6 17 0
7 17 0
8 17 0
9 17 0
10 17 0
11 17 0
12 17 0
13 17 0
14 17 0
15 17 0
16 17 0
17 17 0
18 17 0
19 17 0
20 17 0
21 17 0
22 17 0
23 17 0
24 17 0
25 17 0
26 17 0
27 17 0
28 17 0
29 17 0
0 18 0
1 18 0
2 18 0
3 18 0
4 18 0
5 18 0
6 18 0
7 18 0
8 18 0
9 18 0
10 18 0
11 18 0
12 18 0
13 18 0
14 18 0
15 18 0
16 18 0
17 18 0
18 18 0
19 18 0
20 18 0
21 18 0
22 18 0
23 18 0
24 18 0
25 18 0
26 18 0
27 18 0
28 18 0
29 18 0
0 19 0
1 19 0
2 19 0
3 19 0
4 19 0
5 19 0
6 19 0
7 19 0
8 19 0
9 19 0
10 19 0
11 19 0
12 19 0
13 19 0
14 19 0
15 19 0
16 19 0
17 19 0
18 19 0
19 19 0
20 19 0
21 19 0
22 19 0
23 19 0
24 19 0
25 19 0
26 19 0
27 19 0
28 19 0
29 19 0
0 20 0
1 20 0
2 20 0
3 20 0
4 20 0
5 20 0
6 20 0
7 20 0
8 20 0
9 20 0
10 20 0
11 20 0
12 20 0
13 20 0
14 20 0
15 20 0
16 20 0
17 20 0
18 20 0
19 20 0
20 20 0
21 20 0
22 20 0
23 20 0
24 20 0
25 20 0
26 20 0
27 20 0
28 20 0
29 20 0
0 21 0
1 21 0
2 21 0
3 21 0
4 21 0
5 21 0
6 21 0
7 21 0
8 21 0
9 21 0
10 21 0
11 21 0
12 21 0
13 21 0
14 21 0
15 21 0
16 21 0
17 21 0
18 21 0
19 21 0
20 21 0
21 21 0
22 21 0
23 21 0
24 21 0
25 21 0
26 21 0
27 21 0
28 21 0
29 21 0
0 22 0
1 22 0
2 22 0
3 22 0
4 22 0
5 22 0
6 22 0
7 22 0
8 22 0
9 22 0
10 22 0
11 22 0
12 22 0
13 22 0
14 22 0
15 22 0
16 22 0
17 22 0
18 22 0
19 22 0
20 22 0
21 22 0
22 22 0
23 22 0
24 22 0
25 22 0
26 22 0
27 22 0
28 22 0
29 22 0
0 23 0
1 23 0
2 23 0
3 23 0
4 23 0
5 23 0
6 23 0
7 23 0
8 23 0
9 23 0
10 23 0
11 23 0
12 23 0
13 23 0
14 23 0
15 23 0
16 23 0
17 23 0
18 23 0
19 23 0
20 23 0
21 23 0
22 23 0
23 23 0
24 23 0
25 23 0
26 23 0
27 23 0
28 23 0
29 23 0
0 24 0
1 24 0
2 24 0
3 24 0
4 24 0
5 24 0
6 24 0
7 24 0
8 24 0
9 24 0
10 24 0
11 24 0
12 24 0
13 24 0
14 24 0
15 24 0
16 24 0
17 24 0
18 24 0
19 24 0
20 24 0
21 24 0
22 24 0
23 24 0
24 24 0
25 24 0
26 24 0
27 24 0
28 24 0
29 24 0
0 25 0
1 25 0
2 25 0
3 25 0
4 25 0
5 25 0
6 25 0
7 25 0
8 25 0
9 25 0
10 25 0
11 25 0
12 25 0
13 25 0
14 25 0
15 25 0
16 25 0
17 25 0
18 25 0
19 25 0
20 25 0
21 25 0
22 25 0
23 25 0
24 25 0
25 25 0
26 25 0
27 25 0
28 25 0
29 25 0
0 26 0
1 26 0
2 26 0
3 26 0
4 26 0
5 26 0
6 26 0
7 26 0
8 26 0
9 26 0
10 26 0
11 26 0
12 26 0
13 26 0
14 26 0
15 26 0
16 26 0
17 26 0
18 26 0
19 26 0
20 26 0
21 26 0
22 26 0
23 26 0
24 26 0
25 26 0
26 26 0
27 26 0
28 26 0
29 26 0
0 27 0
1 27 0
2 27 0
3 27 0
4 27 0
5 27 0
6 27 0
7 27 0
8 27 0
9 27 0
10 27 0
11 27 0
12 27 0
13 27 0
14 27 0
15 27 0
16 27 0
17 27 0
18 27 0
19 27 0
20 27 0
21 27 0
22 27 0
23 27 0
24 27 0
25 27 0
26 27 0
27 27 0
28 27 0
29 27 0
0 28 0
1 28 0
2 28 0
3 28 0
4 28 0
5 28 0
6 28 0
7 28 0
8 28 0
9 28 0
10 28 0
11 28 0
12 28 0
13 28 0
14 28 0
15 28 0
16 28 0
17 28 0
18 28 0
19 28 0
20 28 0
21 28 0
22 28 0
23 28 0
24 28 0
25 28 0
26 28 0
27 28 0
28 28 0
29 28 0
0 29 0
1 29 0
2 29 0
3 29 0
4 29 0
5 29 0
6 29 0
7 29 0
8 29 0
9 29 0
10 29 0
11 29 0
12 29 0
13 29 0
14 29 0
15 29 0
16 29 0
17 29 0
18 29 0
19 29 0
20 29 0
21 29 0
22 29 0
23 29 0
24 29 0
25 29 0
26 29 0
27 29 0
28 29 0
29 29 0
0 0 1
1 0 1
2 0 1
3 0 1
4 0 1
5 0 1
6 0 1
7 0 1
8 0 1
9 0 1
10 0 1
11 0 1
12 0 1
13 0 1
14 0 1
15 0 1
16 0 1
17 0 1
18 0 1
19 0 1
20 0 1
21 0 1
22 0 1
23 0 1
24 0 1
25 0 1
26 0 1
27 0 1
28 0 1
29 0 1
0 1 1
1 1 1
2 1 1
3 1 1
4 1 1
5 1 1
6 1 1
7 1 1
8 1 1
9 1 1
10 1 1
11 1 1
12 1 1
13 1 1
14 1 1
15 1 1
16 1 1
17 1 1
18 1 1
19 1 1
20 1 1
21 1 1
22 1 1
23 1 1
24 1 1
25 1 1
26 1 1
27 1 1
28 1 1
29 1 1
0 2 1
1 2 1
2 2 1
3 2 1
4 2 1
5 2 1
6 2 1
7 2 1
8 2 1
9 2 1
10 2 1
11 2 1
12 2 1
13 2 1
14 2 1
15 2 1
16 2 1
17 2 1
18 2 1
19 2 1
20 2 1
21 2 1
22 2 1
23 2 1
24 2 1
25 2 1
26 2 1
27 2 1
28 2 1
29 2 1
0 3 1
1 3 1
2 3 1
3 3 1
4 3 1
5 3 1
6 3 1
7 3 1
8 3 1
9 3 1
10 3 1
11 3 1
12 3 1
13 3 1
14 3 1
15 3 1
16 3 1
17 3 1
18 3 1
19 3 1
20 3 1
21 3 1
22 3 1
23 3 1
24 3 1
25 3 1
26 3 1
27 3 1
28 3 1
29 3 1
0 4 1
1 4 1
2 4 1
3 4 1
4 4 1
5 4 1
6 4 1
7 4 1
8 4 1
9 4 1
10 4 1
11 4 1
12 4 1
13 4 1
14 4 1
15 4 1
16 4 1
17 4 1
18 4 1
19 4 1
20 4 1
21 4 1
22 4 1
23 4 1
24 4 1
25 4 1
26 4 1
27 4 1
28 4 1
29 4 1
0 5 1
1 5 1
2 5 1
3 5 1
4 5 1
5 5 1
6 5 1
7 5 1
8 5 1
9 5 1
10 5 1
11 5 1
12 5 1
13 5 1
14 5 1
15 5 1
16 5 1
17 5 1
18 5 1
19 5 1
20 5 1
21 5 1
22 5 1
23 5 1
24 5 1
25 5 1
26 5 1
27 5 1
28 5 1
29 5 1
0 6 1
1 6 1
2 6 1
3 6 1
4 6 1
5 6 1
6 6 1
7 6 1
8 6 1
9 6 1
10 6 1
11 6 1
12 6 1
13 6 1
14 6 1
15 6 1
16 6 1
17 6 1
18 6 1
19 6 1
20 6 1
21 6 1
22 6 1
23 6 1
24 6 1
25 6 1
26 6 1
27 6 1
28 6 1
29 6 1
0 7 1
1 7 1
2 7 1
3 7 1
4 7 1
5 7 1
6 7 1
7 7 1
8 7 1
9 7 1
10 7 1
11 7 1
12 7 1
13 7 1
14 7 1
15 7 1
16 7 1
17 7 1
18 7 1
19 7 1
20 7 1
21 7 1
22 7 1
23 7 1
24 7 1
25 7 1
26 7 1
27 7 1
28 7 1
29 7 1
0 8 1
1 8 1
2 8 1
3 8 1
4 8 1
5 8 1
6 8 1
7 8 1
8 8 1
9 8 1
10 8 1
11 8 1
12 8 1
13 8 1
14 8 1
15 8 1
16 8 1
17 8 1
18 8 1
19 8 1
20 8 1
21 8 1
22 8 1
23 8 1
24 8 1
25 8 1
26 8 1
27 8 1
28 8 1
29 8 1
0 9 1
1 9 1
2 9 1
3 9 1
4 9 1
5 9 1
6 9 1
7 9 1
8 9 1
9 9 1
10 9 1
11 9 1
12 9 1
13 9 1
14 9 1
15 9 1
16 9 1
17 9 1
18 9 1
19 9 1
20 9 1
21 9 1
22 9 1
23 9 1
24 9 1
25 9 1
26 9 1
27 9 1
28 9 1
29 9 1
0 10 1
1 10 1
2 10 1
3 10 1
4 10 1
5 10 1
6 10 1
7 10 1
8 10 1
9 10 1
10 10 1
11 10 1
12 10 1
13 10 1
14 10 1
15 10 1
16 10 1
17 10 1
18 10 1
19 10 1
20 10 1
21 10 1
22 10 1
23 10 1
24 10 1
25 10 1
26 10 1
27 10 1
28 10 1
29 10 1
0 11 1
1 11 1
2 11 1
3 11 1
4 11 1
5 11 1
6 11 1
7 11 1
8 11 1
9 11 1
10 11 1
11 11 1
12 11 1
13 11 1
14 11 1
15 11 1
16 11 1
17 11 1
18 11 1
19 11 1
20 11 1
21 11 1
22 11 1
23 11 1
24 11 1
25 11 1
26 11 1
27 11 1
28 11 1
29 11 1
0 12 1
1 12 1
2 12 1
3 12 1
4 12 1
5 12 1
6 12 1
7 12 1
8 12 1
9 12 1
10 12 1
11 12 1
12 12 1
13 12 1
14 12 1
15 12 1
16 12 1
17 12 1
18 12 1
19 12 1
20 12 1
21 12 1
22 12 1
23 12 1
24 12 1
25 12 1
26 12 1
27 12 1
28 12 1
29 12 1
0 13 1
1 13 1
2 13 1
3 13 1
4 13 1
5 13 1
6 13 1
7 13 1
8 13 1
9 13 1
10 13 1
11 13 1
12 13 1
13 13 1
14 13 1
15 13 1
16 13 1
17 13 1
18 13 1
19 13 1
20 13 1
21 13 1
22 13 1
23 13 1
24 13 1
25 13 1
26 13 1
27 13 1
28 13 1
29 13 1
0 14 1
1 14 1
2 14 1
3 14 1
4 14 1
5 14 1
6 14 1
7 14 1
8 14 1
9 14 1
10 14 1
11 14 1
12 14 1
13 14 1
14 14 1
15 14 1
16 14 1
17 14 1
18 14 1
19 14 1
20 14 1
21 14 1
22 14 1
23 14 1
24 14 1
25 14 1
26 14 1
27 14 1
28 14 1
29 14 1
0 15 1
1 15 1
2 15 1
3 15 1
4 15 1
5 15 1
6 15 1
7 15 1
8 15 1
9 15 1
10 15 1
11 15 1
12 15 1
[...]
POINT_DATA 27000
SCALARS speed_m_per_s float 1
LOOKUP_TABLE default
0.125000
0.000000
0.000000
0.000000
0.000000
0.000000
0.000000
0.000000
0.000000
0.000000
0.000000
0.000000
0.000000
0.000000
0.000000
0.000000
0.000000
0.000000
0.000000
0.000000
0.000000
0.000000
0.000000
0.000000
0.000000
0.000000
0.000000
0.000000
0.000000
0.000000
0.125000
0.000000
0.000000
0.000000
0.000000
0.000000
0.000000
0.000000
0.000000
0.000000
0.000000
0.000000
0.000000
0.000000
0.000000
0.000000
0.000000
0.000000
0.000000
0.000000
0.000000
0.000000
0.000000
0.000000
0.000000
0.000000
0.000000
0.000000
0.000000
0.000000
0.125000
0.000000
0.000000
0.000000
0.000000
0.000000
0.000000
0.000000
0.000000
0.000000
0.000000
0.000000
0.000000
0.000000
0.000000
0.000000
0.000000
0.000000
0.000000
0.000000
0.000000
0.000000
0.000000
0.000000
0.000000
0.000000
0.000000
0.000000
0.000000
0.000000
0.125000
0.000000
0.000000
0.000000
0.000000
0.000000
0.000000
0.000000
0.000000
0.000000
0.000000
0.000000
0.000000
0.000000
0.000000
0.000000
0.000000
0.000000
0.000000
0.000000
0.000000
0.000000
0.000000
0.000000
0.000000
0.000000
0.000000
0.000000
0.000000
0.000000
0.125000
0.000000
0.000000
0.000000
0.000000
0.000000
0.000000
0.000000
0.000000
0.000000
0.000000
0.000000
0.000000
0.000000
0.000000
0.000000
0.000000
0.000000
0.000000
0.000000
0.000000
0.000000
0.000000
0.000000
0.000000
0.000000
0.000000
0.000000
0.000000
0.000000
0.125000
0.000000
0.000000
0.000000
0.000000
0.000000
0.000000
0.000000
0.000000
0.000000
0.000000
0.000000
0.000000
0.000000
0.000000
0.000000
0.000000
0.000000
0.000000
0.000000
0.000000
0.000000
0.000000
0.000000
0.000000
0.000000
0.000000
0.000000
0.000000
0.000000
0.125000
0.000000
0.000000
0.000000
0.000000
0.000000
0.000000
0.000000
0.000000
0.000000
0.000000
0.000000
0.000000
0.000000
0.000000
0.000000
0.000000
0.000000
0.000000
0.000000
0.000000
0.000000
0.000000
0.000000
0.000000
0.000000
0.000000
0.000000
0.000000
0.000000
0.125000
0.000000
0.000000
0.000000
0.000000
0.000000
0.000000
0.000000
0.000000
0.000000
0.000000
0.000000
0.000000
0.000000
0.000000
0.000000
0.000000
0.000000
0.000000
0.000000
0.000000
0.000000
0.000000
0.000000
0.000000
0.000000
0.000000
0.000000
0.000000
0.000000
0.125000
0.000000
0.000000
0.000000
0.000000
0.000000
0.000000
0.000000
0.000000
0.000000
0.000000
0.000000
0.000000
0.000000
0.000000
0.000000
0.000000
0.000000
0.000000
0.000000
0.000000
0.000000
0.000000
0.000000
0.000000
0.000000
0.000000
0.000000
0.000000
0.000000
0.125000
0.000000
0.000000
0.000000
0.000000
0.000000
0.000000
0.000000
0.000000
0.000000
0.000000
0.000000
0.000000
0.000000
0.000000
0.000000
0.000000
0.000000
0.000000
0.000000
0.000000
0.000000
0.000000
0.000000
0.000000
0.000000
0.000000
0.000000
0.000000
0.000000
0.125000
0.000000
0.000000
0.000000
0.000000
0.000000
0.000000
0.000000
0.000000
0.000000
0.000000
0.000000
0.000000
0.000000
0.000000
0.000000
0.000000
0.000000
0.000000
0.000000
0.000000
0.000000
0.000000
0.000000
0.000000
0.000000
0.000000
0.000000
0.000000
0.000000
0.125000
0.000000
0.000000
0.000000
0.000000
0.000000
0.000000
0.000000
0.000000
0.000000
0.000000
0.000000
0.000000
0.000000
0.000000
0.000000
0.000000
0.000000
0.000000
0.000000
0.000000
0.000000
0.000000
0.000000
0.000000
0.000000
0.000000
0.000000
0.000000
0.000000
0.125000
0.000000
0.000000
0.000000
0.000000
0.000000
0.000000
0.000000
0.000000
0.000000
0.000000
0.000000
0.000000
0.000000
0.000000
0.000000
0.000000
0.000000
0.000000
0.000000
0.000000
0.000000
0.000000
0.000000
0.000000
0.000000
0.000000
0.000000
0.000000
0.000000
0.125000
0.000000
0.000000
0.000000
0.000000
0.000000
0.000000
0.000000
0.000000
0.000000
0.000000
0.000000
0.000000
0.000000
0.000000
0.000000
0.000000
0.000000
0.000000
0.000000
0.000000
0.000000
0.000000
0.000000
0.000000
0.000000
0.000000
0.000000
0.000000
0.000000
0.125000
0.000000
0.000000
0.000000
0.000000
0.000000
0.000000
0.000000
0.000000
0.000000
0.000000
0.000000
0.000000
0.000000
0.000000
0.000000
0.000000
0.000000
0.000000
0.000000
0.000000
0.000000
0.000000
0.000000
0.000000
0.000000
0.000000
0.000000
0.000000
0.000000
0.125000
0.000000
0.000000
0.000000
0.000000
0.000000
0.000000
0.000000
0.000000
0.000000
0.000000
0.000000
0.000000
0.000000
0.000000
0.000000
0.000000
0.000000
0.000000
0.000000
0.000000
0.000000
0.000000
0.000000
0.000000
0.000000
0.000000
0.000000
0.000000
0.000000
0.125000
0.000000
0.000000
0.000000
0.000000
0.000000
0.000000
0.000000
0.000000
0.000000
0.000000
0.000000
0.000000
0.000000
0.000000
0.000000
0.000000
0.000000
0.000000
0.000000
0.000000
0.000000
0.000000
0.000000
0.000000
0.000000
0.000000
0.000000
0.000000
0.000000
0.125000
0.000000
0.000000
0.000000
0.000000
0.000000
0.000000
0.000000
0.000000
0.000000
0.000000
0.000000
0.000000
0.000000
0.000000
0.000000
0.000000
0.000000
0.000000
0.000000
0.000000
0.000000
0.000000
0.000000
0.000000
0.000000
0.000000
0.000000
0.000000
0.000000
0.125000
0.000000
0.000000
0.000000
0.000000
0.000000
0.000000
0.000000
0.000000
0.000000
0.000000
0.000000
0.000000
0.000000
0.000000
0.000000
0.000000
0.000000
0.000000
0.000000
0.000000
0.000000
0.000000
0.000000
0.000000
0.000000
0.000000
0.000000
0.000000
0.000000
0.125000
0.000000
0.000000
0.000000
0.000000
0.000000
0.000000
0.000000
0.000000
0.000000
0.000000
0.000000
0.000000
0.000000
0.000000
0.000000
0.000000
0.000000
0.000000
0.000000
0.000000
0.000000
0.000000
0.000000
0.000000
0.000000
0.000000
0.000000
0.000000
0.000000
0.125000
0.000000
0.000000
0.000000
0.000000
0.000000
0.000000
0.000000
0.000000
0.000000
0.000000
0.000000
0.000000
0.000000
0.000000
0.000000
0.000000
0.000000
0.000000
0.000000
0.000000
0.000000
0.000000
0.000000
0.000000
0.000000
0.000000
0.000000
0.000000
0.000000
0.125000
0.000000
0.000000
0.000000
0.000000
0.000000
0.000000
0.000000
0.000000
0.000000
0.000000
0.000000
0.000000
0.000000
0.000000
0.000000
0.000000
0.000000
0.000000
0.000000
0.000000
0.000000
0.000000
0.000000
0.000000
0.000000
0.000000
0.000000
0.000000
0.000000
0.125000
0.000000
0.000000
0.000000
0.000000
0.000000
0.000000
0.000000
0.000000
0.000000
0.000000
0.000000
0.000000
0.000000
0.000000
0.000000
0.000000
0.000000
0.000000
0.000000
0.000000
0.000000
0.000000
0.000000
0.000000
0.000000
0.000000
0.000000
0.000000
0.000000
0.125000
0.000000
0.000000
0.000000
0.000000
0.000000
0.000000
0.000000
0.000000
0.000000
0.000000
0.000000
0.000000
0.000000
0.000000
0.000000
0.000000
0.000000
0.000000
0.000000
0.000000
0.000000
0.000000
0.000000
0.000000
0.000000
0.000000
0.000000
0.000000
0.000000
0.125000
0.000000
0.000000
0.000000
0.000000
0.000000
0.000000
0.000000
0.000000
0.000000
0.000000
0.000000
0.000000
0.000000
0.000000
0.000000
0.000000
0.000000
0.000000
0.000000
0.000000
0.000000
0.000000
0.000000
0.000000
0.000000
0.000000
0.000000
0.000000
0.000000
0.125000
0.000000
0.000000
0.000000
0.000000
0.000000
0.000000
0.000000
0.000000
0.000000
0.000000
0.000000
0.000000
0.000000
0.000000
0.000000
0.000000
0.000000
0.000000
0.000000
0.000000
0.000000
0.000000
0.000000
0.000000
0.000000
0.000000
0.000000
0.000000
0.000000
0.125000
0.000000
0.000000
0.000000
0.000000
0.000000
0.000000
0.000000
0.000000
0.000000
0.000000
0.000000
0.000000
0.000000
0.000000
0.000000
0.000000
0.000000
0.000000
0.000000
0.000000
0.000000
0.000000
0.000000
0.000000
0.000000
0.000000
0.000000
0.000000
0.000000
0.125000
0.000000
0.000000
0.000000
0.000000
0.000000
0.000000
0.000000
0.000000
0.000000
0.000000
0.000000
0.000000
0.000000
0.000000
0.000000
0.000000
0.000000
0.000000
0.000000
0.000000
0.000000
0.000000
0.000000
0.000000
0.000000
0.000000
0.000000
0.000000
0.000000
0.125000
0.000000
0.000000
0.000000
0.000000
0.000000
0.000000
0.000000
0.000000
0.000000
0.000000
0.000000
0.000000
0.000000
0.000000
0.000000
0.000000
0.000000
0.000000
0.000000
0.000000
0.000000
0.000000
0.000000
0.000000
0.000000
0.000000
0.000000
0.000000
0.000000
0.125000
0.000000
0.000000
0.000000
0.000000
0.000000
0.000000
0.000000
0.000000
0.000000
0.000000
0.000000
0.000000
0.000000
0.000000
0.000000
0.000000
0.000000
0.000000
0.000000
0.000000
0.000000
0.000000
0.000000
0.000000
0.000000
0.000000
0.000000
0.000000
0.000000
0.125000
0.000000
0.000000
0.000000
0.000000
0.000000
0.000000
0.000000
0.000000
0.000000
0.000000
0.000000
0.000000
0.000000
0.000000
0.000000
0.000000
0.000000
0.000000
0.000000
0.000000
0.000000
0.000000
0.000000
0.000000
0.000000
0.000000
0.000000
0.000000
0.000000
0.125000
0.065425
0.038472
0.027934
0.026459
0.025418
0.024358
0.023559
0.022924
0.022364
0.021732
0.021114
0.020504
0.020060
0.018603
0.017343
0.015943
0.013094
0.012444
0.011958
0.011459
0.010953
0.010498
0.010087
0.009678
0.009263
0.008848
0.008433
0.008097
0.000000
0.125000
0.069153
0.047995
0.036921
0.033184
0.031113
0.029526
0.028502
0.027615
0.027000
0.026489
0.026066
0.025715
0.025332
0.024226
0.021197
0.020170
0.017469
0.016257
0.015466
0.014868
0.014335
0.013879
0.013432
0.013006
0.012553
0.012080
0.011592
0.011175
0.000000
0.125000
0.069638
0.050216
0.038621
0.034165
0.032233
0.030692
0.029414
0.028595
0.028003
0.027604
0.027291
0.027045
0.026758
0.025977
0.023324
0.022350
0.019137
0.017357
0.016547
0.016053
0.015632
0.015217
0.014824
0.014416
0.014002
0.013559
0.013090
0.012678
0.000000
0.125000
0.069267
0.049693
0.038885
0.035601
0.033835
0.032091
0.030870
0.030031
0.029496
0.029067
0.028759
0.028511
0.028287
0.027916
0.025477
0.024934
0.021367
0.018989
0.018086
0.017589
0.017186
0.016812
0.016455
0.016075
0.015684
0.015272
0.014829
0.014423
0.000000
0.125000
0.069041
0.048918
0.038554
0.035848
0.034386
0.032931
0.031815
0.031027
0.030472
0.030053
0.029737
0.029459
0.029287
0.029317
0.027153
0.027039
0.023060
0.020195
0.019130
0.018612
0.018221
0.017848
0.017496
0.017126
0.016751
0.016348
0.015922
0.015518
0.000000
0.125000
0.069028
0.048617
0.038333
0.035850
0.034802
0.033648
0.032613
0.031891
0.031338
0.030930
0.030611
0.030298
0.030141
0.030473
0.028467
0.028652
0.024527
0.021310
0.020133
0.019605
0.019209
0.018826
0.018462
0.018098
0.017729
0.017338
0.016918
0.016513
0.000000
0.125000
0.068974
0.048392
0.038051
0.035653
0.034738
0.033698
0.032813
0.032130
0.031647
0.031250
0.030957
0.030684
0.030553
0.031114
0.029317
0.029709
0.025419
0.022002
0.020740
0.020162
0.019740
0.019315
0.018937
0.018549
0.018171
0.017775
0.017350
0.016940
0.000000
0.125000
0.068951
0.048390
0.038036
0.035672
0.034796
0.033824
0.032994
0.032412
0.031942
0.031588
0.031314
0.031047
0.030928
0.031580
0.029869
0.030392
0.026103
0.022616
0.021333
0.020746
0.020308
0.019873
0.019471
0.019086
0.018697
0.018304
0.017873
0.017462
0.000000
0.125000
0.068866
0.048314
0.037947
0.035514
0.034573
0.033579
0.032787
0.032246
0.031844
0.031533
0.031303
0.031080
0.030999
0.031680
0.030158
0.030596
0.026361
0.022880
0.021577
0.020935
0.020458
0.019987
0.019562
0.019137
0.018723
0.018310
0.017863
0.017433
0.000000
0.125000
0.068773
0.048336
0.037928
0.035413
0.034348
0.033218
0.032385
0.031833
0.031471
0.031199
0.031011
0.030878
0.030733
0.031389
0.030023
0.030326
0.026255
0.022913
0.021647
0.020951
0.020409
0.019913
0.019454
0.019020
0.018584
0.018156
0.017708
0.017274
0.000000
0.125000
0.068711
0.048329
0.037751
0.035000
0.033748
0.032454
0.031576
0.030945
0.030625
0.030407
0.030334
0.030320
0.030098
0.030789
0.029441
0.029567
0.025945
0.022734
0.021379
0.020558
0.019890
0.019317
0.018804
0.018331
0.017878
0.017434
0.016970
0.016527
0.000000
0.125000
0.068479
0.047836
0.037096
0.033892
0.032322
0.030871
0.029860
0.029200
0.028813
0.028625
0.028650
0.028695
0.028520
0.029370
0.028135
0.028149
0.024903
0.021890
0.020275
0.019273
0.018497
0.017866
0.017325
0.016824
0.016373
0.015927
0.015443
0.014988
0.000000
0.125000
0.068104
0.046859
0.035867
0.032311
0.030544
0.028946
0.027893
0.027117
0.026700
0.026516
0.026561
0.026652
0.026786
0.027762
0.026797
0.027256
0.023979
0.020973
0.019044
0.017784
0.016879
0.016199
0.015615
0.015129
0.014663
0.014220
0.013740
0.013274
0.000000
0.125000
0.066284
0.044007
0.032619
0.028021
0.025691
0.024042
0.023085
0.022377
0.021925
0.021519
0.021298
0.021033
0.021128
0.022020
0.023225
0.023669
0.019299
0.016403
0.014685
0.013476
0.012615
0.012002
0.011486
0.011017
0.010565
0.010134
0.009679
0.009240
0.000000
0.125000
0.047912
0.027136
0.018543
0.014695
0.012229
0.010253
0.009003
0.008238
0.007716
0.007354
0.007121
0.006970
0.006824
0.007696
0.010803
0.013036
0.009846
0.008013
0.006759
0.005804
0.005078
0.004557
0.004208
0.003933
0.003690
0.003496
0.003307
0.003106
0.000000
0.125000
0.067666
0.045603
0.031052
0.026925
0.025063
0.023650
0.022808
0.022197
0.021695
0.021133
0.020616
0.020044
0.019727
0.018622
0.019910
0.019965
0.016106
0.014094
0.013060
0.012273
0.011576
0.010963
0.010460
0.010000
0.009535
0.009087
0.008617
0.008199
0.000000
0.125000
0.069197
0.052018
0.040701
0.036309
0.033859
0.031955
0.030786
0.029926
0.029400
0.028939
0.028671
0.028445
0.027967
0.027558
0.025721
0.025570
0.023141
0.021030
0.019650
0.018563
0.017684
0.017040
0.016454
0.015926
0.015383
0.014832
0.014269
0.013750
0.000000
0.125000
0.068410
0.051557
0.041456
0.037606
0.035590
0.033898
0.032671
0.031770
0.031192
0.030808
0.030636
0.030462
0.029816
0.029562
0.027946
0.027227
0.024298
0.022114
0.020947
0.020188
0.019592
0.019036
0.018500
0.017974
0.017443
0.016918
0.016361
0.015842
0.000000
0.125000
0.068005
0.050292
0.041081
0.038623
0.037234
0.035722
0.034562
0.033725
0.033177
0.032783
0.032532
0.032329
0.031849
0.031877
0.030191
0.029773
0.026282
0.023609
0.022645
0.022128
0.021670
0.021215
0.020758
0.020276
0.019783
0.019283
0.018748
0.018246
0.000000
0.125000
0.067875
0.049222
0.040178
0.038303
0.037415
0.036296
0.035405
0.034664
0.034143
0.033713
0.033392
0.033138
0.032922
0.033280
0.031638
0.031604
0.027388
0.024267
0.023284
0.022886
0.022569
0.022234
0.021855
0.021431
0.020972
0.020492
0.019980
0.019491
0.000000
0.125000
0.067891
0.048777
0.039675
0.038002
0.037493
0.036703
0.035957
0.035345
0.034837
0.034399
0.034066
0.033785
0.033669
0.034302
0.032536
0.032811
0.028346
0.024900
0.023806
0.023447
0.023204
0.022914
0.022571
0.022184
0.021746
0.021282
0.020778
0.020284
0.000000
0.125000
0.067886
0.048606
0.039452
0.037848
0.037477
0.036781
0.036126
0.035524
0.035044
0.034601
0.034277
0.034003
0.033897
0.034677
0.032900
0.033353
0.028758
0.025177
0.024043
0.023703
0.023485
0.023205
0.022878
0.022507
0.022085
0.021633
0.021133
0.020641
0.000000
0.125000
0.067853
0.048607
0.039440
0.037809
0.037390
0.036633
0.035932
0.035336
0.034833
0.034410
0.034113
0.033861
0.033765
0.034572
0.032866
0.033282
0.028715
0.025141
0.023999
0.023625
0.023357
0.023044
0.022690
0.022295
0.021856
0.021399
0.020892
0.020395
0.000000
0.125000
0.067858
0.048952
0.039875
0.038111
0.037469
0.036462
0.035595
0.034951
0.034465
0.034047
0.033769
0.033540
0.033410
0.034073
0.032405
0.032677
0.028382
0.025016
0.023920
0.023504
0.023176
0.022806
0.022410
0.021993
0.021535
0.021059
0.020552
0.020056
0.000000
0.125000
0.067870
0.049491
0.040318
0.038049
0.036895
0.035587
0.034548
0.033775
0.033309
0.032950
0.032741
0.032591
0.032396
0.032858
0.031427
0.031407
0.027433
0.024372
0.023268
0.022693
0.022239
0.021772
0.021301
0.020828
0.020342
0.019843
0.019321
0.018822
0.000000
0.125000
0.068000
0.050834
0.041564
0.038214
0.035964
0.034269
0.033146
0.032358
0.031858
0.031559
0.031443
0.031351
0.031065
0.031329
0.029955
0.029555
0.026380
0.023736
0.022637
0.021778
0.021093
0.020526
0.020005
0.019485
0.018980
0.018476
0.017935
0.017426
0.000000
0.125000
0.068079
0.051334
0.039744
0.035578
0.033297
0.031434
0.030189
0.029467
0.028953
0.028709
0.028580
0.028578
0.028398
0.028736
0.027659
0.027228
0.024663
0.021599
0.020094
0.019155
0.018390
0.017693
0.017121
0.016601
0.016083
0.015571
0.015018
0.014493
0.000000
0.125000
0.069017
0.051618
0.037295
0.031647
0.029736
0.028200
0.027117
0.026165
0.025792
0.025380
0.025194
0.025168
0.025171
0.025563
0.025049
0.025243
0.023918
0.020375
0.017915
0.016547
0.015661
0.014993
0.014393
0.013901
0.013412
0.012902
0.012372
0.011868
0.000000
0.125000
0.047386
0.022823
0.017575
0.016999
0.015506
0.014549
0.014043
0.013799
0.013432
0.013117
0.012749
0.012453
0.012354
0.012388
0.013100
0.014842
0.010297
0.008934
0.008360
0.007647
0.007091
0.006705
0.006441
0.006162
0.005866
0.005587
0.005284
0.004997
0.000000
0.125000
0.000000
0.000000
0.000000
0.000000
0.000000
0.000000
0.000000
0.000000
0.000000
0.000000
0.000000
0.000000
0.000000
0.000000
0.000000
0.000000
0.000000
0.000000
0.000000
0.000000
0.000000
0.000000
0.000000
0.000000
0.000000
0.000000
0.000000
0.000000
0.000000
0.125000
0.069154
0.047995
0.036917
0.033195
0.031087
0.029552
0.028400
0.027571
0.027021
0.026416
0.026051
0.025720
0.025341
0.024190
0.021069
0.020011
0.017469
0.016233
0.015491
0.014862
0.014339
0.013867
0.013433
0.013012
0.012562
0.012083
0.011594
0.011171
0.000000
0.125000
0.081048
0.071138
0.058688
0.051014
0.046188
0.043358
0.041856
0.040544
0.039817
0.039298
0.039171
0.039135
0.038441
0.036249
0.024033
0.028831
0.026725
0.025449
0.024430
0.023520
0.022858
0.022339
0.021801
0.021273
0.020676
0.020034
0.019409
0.018926
0.000000
0.125000
0.084061
0.079389
0.069318
0.061221
0.055614
0.052273
0.050093
0.048688
0.047797
0.047327
0.047271
0.047152
0.046146
0.043176
0.024241
0.034935
0.032616
0.031466
0.030589
0.029754
0.029152
0.028621
0.028101
0.027527
0.026909
0.026257
0.025634
0.025165
0.000000
0.125000
0.083216
0.079011
0.071515
0.065340
0.060171
0.056562
0.054416
0.052979
0.052147
0.051605
0.051454
0.051224
0.050246
0.047488
0.024560
0.039285
0.036642
0.035326
0.034416
0.033602
0.033011
0.032517
0.032022
0.031472
0.030865
0.030252
0.029669
0.029214
0.000000
0.125000
0.082760
0.078391
0.071991
0.067028
0.062701
0.059646
0.057718
0.056350
0.055450
0.054847
0.054586
0.054243
0.053365
0.050872
0.025081
0.042884
0.040068
0.038592
0.037546
0.036716
0.036160
0.035696
0.035209
0.034677
0.034101
0.033518
0.032966
0.032525
0.000000
0.125000
0.082660
0.077902
0.071452
0.066982
0.063410
0.060957
0.059307
0.058061
0.057175
0.056615
0.056397
0.056068
0.055377
0.053205
0.025733
0.045496
0.042622
0.040960
0.039696
0.038751
0.038144
0.037656
0.037119
0.036564
0.035993
0.035422
0.034874
0.034426
0.000000
0.125000
0.082675
0.077724
0.071240
0.067011
0.063761
0.061602
0.060264
0.059117
0.058355
0.057841
0.057646
0.057331
0.056740
0.054745
0.026116
0.047311
0.044426
0.042784
0.041469
0.040449
0.039804
0.039301
0.038760
0.038198
0.037632
0.037074
0.036532
0.036084
0.000000
0.125000
0.082517
0.077359
0.070736
0.066483
0.063320
0.061308
0.060093
0.059129
0.058465
0.058068
0.057983
0.057795
0.057377
0.055591
0.026539
0.048376
0.045444
0.043761
0.042384
0.041309
0.040578
0.039994
0.039364
0.038764
0.038143
0.037549
0.036982
0.036521
0.000000
0.125000
0.082463
0.077391
0.070705
0.066365
0.063146
0.061127
0.059984
0.059138
0.058584
0.058265
0.058247
0.058118
0.057747
0.055962
0.026884
0.048882
0.046127
0.044602
0.043308
0.042248
0.041500
0.040866
0.040217
0.039585
0.038944
0.038336
0.037759
0.037296
0.000000
0.125000
0.082297
0.077104
0.070163
0.065446
0.061868
0.059580
0.058344
0.057506
0.057057
0.056877
0.057048
0.057155
0.056880
0.055272
0.026835
0.048395
0.045742
0.044366
0.043068
0.041857
0.040915
0.040153
0.039401
0.038706
0.038001
0.037351
0.036766
0.036279
0.000000
0.125000
0.082242
0.076781
0.069222
0.063886
0.059798
0.057150
0.055761
0.054799
0.054440
0.054434
0.054867
0.055197
0.055021
0.053667
0.026425
0.047106
0.044922
0.043621
0.042141
0.040678
0.039519
0.038628
0.037815
0.037078
0.036371
0.035708
0.035107
0.034623
0.000000
0.125000
0.081824
0.075563
0.067038
0.060645
0.055745
0.052692
0.051020
0.050024
0.049641
0.049806
0.050591
0.051309
0.051612
0.050750
0.025280
0.044927
0.043149
0.041621
0.039468
0.037525
0.036101
0.035079
0.034228
0.033446
0.032736
0.032073
0.031453
0.030952
0.000000
0.125000
0.080398
0.071624
0.061238
0.053805
0.048423
0.045138
0.043389
0.042263
0.041826
0.042018
0.042850
0.043903
0.045299
0.045708
0.024247
0.042023
0.039644
0.037003
0.033995
0.031715
0.030224
0.029231
0.028408