# vtk DataFile Version 3.0
LBM Simulation Data (speed_m_per_s) [FIXED_SCALING_v11]
ASCII
DATASET STRUCTURED_GRID
DIMENSIONS 30 30 30
POINTS 27000 float
0 0 0
1 0 0
2 0 0
3 0 0
4 0 0
5 0 0
6 0 0
7 0 0
8 0 0
9 0 0
10 0 0
11 0 0
12 0 0
13 0 0
14 0 0
15 0 0
16 0 0
17 0 0
18 0 0
19 0 0
20 0 0
21 0 0
22 0 0
23 0 0
24 0 0
25 0 0
26 0 0
27 0 0
28 0 0
29 0 0
0 1 0
1 1 0
2 1 0
3 1 0
4 1 0
5 1 0
6 1 0
7 1 0
8 1 0
9 1 0
10 1 0
11 1 0
12 1 0
13 1 0
14 1 0
15 1 0
16 1 0
17 1 0
18 1 0
19 1 0
20 1 0
21 1 0
22 1 0
23 1 0
24 1 0
25 1 0
26 1 0
27 1 0
28 1 0
29 1 0
0 2 0
1 2 0
2 2 0
3 2 0
4 2 0
5 2 0
6 2 0
7 2 0
8 2 0
9 2 0
10 2 0
11 2 0
12 2 0
13 2 0
14 2 0
15 2 0
16 2 0
17 2 0
18 2 0
19 2 0
20 2 0
21 2 0
22 2 0
23 2 0
24 2 0
25 2 0
26 2 0
27 2 0
28 2 0
29 2 0
0 3 0
1 3 0
2 3 0
3 3 0
4 3 0
5 3 0
6 3 0
7 3 0
8 3 0
9 3 0
10 3 0
11 3 0
12 3 0
13 3 0
14 3 0
15 3 0
16 3 0
17 3 0
18 3 0
19 3 0
20 3 0
21 3 0
22 3 0
23 3 0
24 3 0
25 3 0
26 3 0
27 3 0
28 3 0
29 3 0
0 4 0
1 4 0
2 4 0
3 4 0
4 4 0
5 4 0
6 4 0
7 4 0
8 4 0
9 4 0
10 4 0
11 4 0
12 4 0
13 4 0
14 4 0
15 4 0
16 4 0
17 4 0
18 4 0
19 4 0
20 4 0
21 4 0
22 4 0
23 4 0
24 4 0
25 4 0
26 4 0
27 4 0
28 4 0
29 4 0
0 5 0
1 5 0
2 5 0
3 5 0
4 5 0
5 5 0
6 5 0
7 5 0
8 5 0
9 5 0
10 5 0
11 5 0
12 5 0
13 5 0
14 5 0
15 5 0
16 5 0
17 5 0
18 5 0
19 5 0
20 5 0
21 5 0
22 5 0
23 5 0
24 5 0
25 5 0
26 5 0
27 5 0
28 5 0
29 5 0
0 6 0
1 6 0
2 6 0
3 6 0
4 6 0
5 6 0
6 6 0
7 6 0
8 6 0
9 6 0
10 6 0
11 6 0
12 6 0
13 6 0
14 6 0
15 6 0
16 6 0
17 6 0
18 6 0
19 6 0
20 6 0
21 6 0
22 6 0
23 6 0
24 6 0
25 6 0
26 6 0
27 6 0
28 6 0
29 6 0
0 7 0
1 7 0
2 7 0
3 7 0
4 7 0
5 7 0
6 7 0
7 7 0
8 7 0
9 7 0
10 7 0
11 7 0
12 7 0
13 7 0
14 7 0
15 7 0
16 7 0
17 7 0
18 7 0
19 7 0
20 7 0
21 7 0
22 7 0
23 7 0
24 7 0
25 7 0
26 7 0
27 7 0
28 7 0
29 7 0
0 8 0
1 8 0
2 8 0
3 8 0
4 8 0
5 8 0
6 8 0
7 8 0
8 8 0
9 8 0
10 8 0
11 8 0
12 8 0
13 8 0
14 8 0
15 8 0
16 8 0
17 8 0
18 8 0
19 8 0
20 8 0
21 8 0
22 8 0
23 8 0
24 8 0
25 8 0
26 8 0
27 8 0
28 8 0
29 8 0
0 9 0
1 9 0
2 9 0
3 9 0
4 9 0
5 9 0
6 9 0
7 9 0
8 9 0
9 9 0
10 9 0
11 9 0
12 9 0
13 9 0
14 9 0
15 9 0
16 9 0
17 9 0
18 9 0
19 9 0
20 9 0
21 9 0
22 9 0
23 9 0
24 9 0
25 9 0
26 9 0
27 9 0
28 9 0
29 9 0
0 10 0
1 10 0
2 10 0
3 10 0
4 10 0
5 10 0
6 10 0
7 10 0
8 10 0
9 10 0
10 10 0
11 10 0
12 10 0
13 10 0
14 10 0
15 10 0
16 10 0
17 10 0
18 10 0
19 10 0
20 10 0
21 10 0
22 10 0
23 10 0
24 10 0
25 10 0
26 10 0
27 10 0
28 10 0
29 10 0
0 11 0
1 11 0
2 11 0
3 11 0
4 11 0
5 11 0
6 11 0
7 11 0
8 11 0
9 11 0
10 11 0
11 11 0
12 11 0
13 11 0
14 11 0
15 11 0
16 11 0
17 11 0
18 11 0
19 11 0
20 11 0
21 11 0
22 11 0
23 11 0
24 11 0
25 11 0
26 11 0
27 11 0
28 11 0
29 11 0
0 12 0
1 12 0
2 12 0
3 12 0
4 12 0
5 12 0
6 12 0
7 12 0
8 12 0
9 12 0
10 12 0
11 12 0
12 12 0
13 12 0
14 12 0
15 12 0
16 12 0
17 12 0
18 12 0
19 12 0
20 12 0
21 12 0
22 12 0
23 12 0
24 12 0
25 12 0
26 12 0
27 12 0
28 12 0
29 12 0
0 13 0
1 13 0
2 13 0
3 13 0
4 13 0
5 13 0
6 13 0
7 13 0
8 13 0
9 13 0
10 13 0
11 13 0
12 13 0
13 13 0
14 13 0
15 13 0
16 13 0
17 13 0
18 13 0
19 13 0
20 13 0
21 13 0
22 13 0
23 13 0
24 13 0
25 13 0
26 13 0
27 13 0
28 13 0
29 13 0
0 14 0
1 14 0
2 14 0
3 14 0
4 14 0
5 14 0
6 14 0
7 14 0
8 14 0
9 14 0
10 14 0
11 14 0
12 14 0
13 14 0
14 14 0
15 14 0
16 14 0
17 14 0
18 14 0
19 14 0
20 14 0
21 14 0
22 14 0
23 14 0
24 14 0
25 14 0
26 14 0
27 14 0
28 14 0
29 14 0
0 15 0
1 15 0
2 15 0
3 15 0
4 15 0
5 15 0
6 15 0
7 15 0
8 15 0
9 15 0
10 15 0
11 15 0
12 15 0
13 15 0
14 15 0
15 15 0
16 15 0
17 15 0
18 15 0
19 15 0
20 15 0
21 15 0
22 15 0
23 15 0
24 15 0
25 15 0
26 15 0
27 15 0
28 15 0
29 15 0
0 16 0
1 16 0
2 16 0
3 16 0
4 16 0
5 16 0
6 16 0
7 16 0
8 16 0
9 16 0
10 16 0
11 16 0
12 16 0
13 16 0
14 16 0
15 16 0
16 16 0
17 16 0
18 16 0
19 16 0
20 16 0
21 16 0
22 16 0
23 16 0
24 16 0
25 16 0
26 16 0
27 16 0
28 16 0
29 16 0
0 17 0
1 17 0
2 17 0
3 17 0
4 17 0
5 17 0
6 17 0
7 17 0
8 17 0
9 17 0
10 17 0
11 17 0
12 17 0
13 17 0
14 17 0
15 17 0
16 17 0
17 17 0
18 17 0
19 17 0
20 17 0
21 17 0
22 17 0
23 17 0
24 17 0
25 17 0
26 17 0
27 17 0
28 17 0
29 17 0
0 18 0
1 18 0
2 18 0
3 18 0
4 18 0
5 18 0
6 18 0
7 18 0
8 18 0
9 18 0
10 18 0
11 18 0
12 18 0
13 18 0
14 18 0
15 18 0
16 18 0
17 18 0
18 18 0
19 18 0
20 18 0
21 18 0
22 18 0
23 18 0
24 18 0
25 18 0
26 18 0
27 18 0
28 18 0
29 18 0
0 19 0
1 19 0
2 19 0
3 19 0
4 19 0
5 19 0
6 19 0
7 19 0
8 19 0
9 19 0
10 19 0
11 19 0
12 19 0
13 19 0
14 19 0
15 19 0
16 19 0
17 19 0
18 19 0
19 19 0
20 19 0
21 19 0
22 19 0
23 19 0
24 19 0
25 19 0
26 19 0
27 19 0
28 19 0
29 19 0
0 20 0
1 20 0
2 20 0
3 20 0
4 20 0
5 20 0
6 20 0
7 20 0
8 20 0
9 20 0
10 20 0
11 20 0
12 20 0
13 20 0
14 20 0
15 20 0
16 20 0
17 20 0
18 20 0
19 20 0
20 20 0
21 20 0
22 20 0
23 20 0
24 20 0
25 20 0
26 20 0
27 20 0
28 20 0
29 20 0
0 21 0
1 21 0
2 21 0
3 21 0
4 21 0
5 21 0
6 21 0
7 21 0
8 21 0
9 21 0
10 21 0
11 21 0
12 21 0
13 21 0
14 21 0
15 21 0
16 21 0
17 21 0
18 21 0
19 21 0
20 21 0
21 21 0
22 21 0
23 21 0
24 21 0
25 21 0
26 21 0
27 21 0
28 21 0
29 21 0
0 22 0
1 22 0
2 22 0
3 22 0
4 22 0
5 22 0
6 22 0
7 22 0
8 22 0
9 22 0
10 22 0
11 22 0
12 22 0
13 22 0
14 22 0
15 22 0
16 22 0
17 22 0
18 22 0
19 22 0
20 22 0
21 22 0
22 22 0
23 22 0
24 22 0
25 22 0
26 22 0
27 22 0
28 22 0
29 22 0
0 23 0
1 23 0
2 23 0
3 23 0
4 23 0
5 23 0
6 23 0
7 23 0
8 23 0
9 23 0
10 23 0
11 23 0
12 23 0
13 23 0
14 23 0
15 23 0
16 23 0
17 23 0
18 23 0
19 23 0
20 23 0
21 23 0
22 23 0
23 23 0
24 23 0
25 23 0
26 23 0
27 23 0
28 23 0
29 23 0
0 24 0
1 24 0
2 24 0
3 24 0
4 24 0
5 24 0
6 24 0
7 24 0
8 24 0
9 24 0
10 24 0
11 24 0
12 24 0
13 24 0
14 24 0
15 24 0
16 24 0
17 24 0
18 24 0
19 24 0
20 24 0
21 24 0
22 24 0
23 24 0
24 24 0
25 24 0
26 24 0
27 24 0
28 24 0
29 24 0
0 25 0
1 25 0
2 25 0
3 25 0
4 25 0
5 25 0
6 25 0
7 25 0
8 25 0
9 25 0
10 25 0
11 25 0
12 25 0
13 25 0
14 25 0
15 25 0
16 25 0
17 25 0
18 25 0
19 25 0
20 25 0
21 25 0
22 25 0
23 25 0
24 25 0
25 25 0
26 25 0
27 25 0
28 25 0
29 25 0
0 26 0
1 26 0
2 26 0
3 26 0
4 26 0
5 26 0
6 26 0
7 26 0
8 26 0
9 26 0
10 26 0
11 26 0
12 26 0
13 26 0
14 26 0
15 26 0
16 26 0
17 26 0
18 26 0
19 26 0
20 26 0
21 26 0
22 26 0
23 26 0
24 26 0
25 26 0
26 26 0
27 26 0
28 26 0
29 26 0
0 27 0
1 27 0
2 27 0
3 27 0
4 27 0
5 27 0
6 27 0
7 27 0
8 27 0
9 27 0
10 27 0
11 27 0
12 27 0
13 27 0
14 27 0
15 27 0
16 27 0
17 27 0
18 27 0
19 27 0
20 27 0
21 27 0
22 27 0
23 27 0
24 27 0
25 27 0
26 27 0
27 27 0
28 27 0
29 27 0
0 28 0
1 28 0
2 28 0
3 28 0
4 28 0
5 28 0
6 28 0
7 28 0
8 28 0
9 28 0
10 28 0
11 28 0
12 28 0
13 28 0
14 28 0
15 28 0
16 28 0
17 28 0
18 28 0
19 28 0
20 28 0
21 28 0
22 28 0
23 28 0
24 28 0
25 28 0
26 28 0
27 28 0
28 28 0
29 28 0
0 29 0
1 29 0
2 29 0
3 29 0
4 29 0
5 29 0
6 29 0
7 29 0
8 29 0
9 29 0
10 29 0
11 29 0
12 29 0
13 29 0
14 29 0
15 29 0
16 29 0
17 29 0
18 29 0
19 29 0
20 29 0
21 29 0
22 29 0
23 29 0
24 29 0
25 29 0
26 29 0
27 29 0
28 29 0
29 29 0
0 0 1
1 0 1
2 0 1
3 0 1
4 0 1
5 0 1
6 0 1
7 0 1
8 0 1
9 0 1
10 0 1
11 0 1
12 0 1
13 0 1
14 0 1
15 0 1
16 0 1
17 0 1
18 0 1
19 0 1
20 0 1
21 0 1
22 0 1
23 0 1
24 0 1
25 0 1
26 0 1
27 0 1
28 0 1
29 0 1
0 1 1
1 1 1
2 1 1
3 1 1
4 1 1
5 1 1
6 1 1
7 1 1
8 1 1
9 1 1
10 1 1
11 1 1
12 1 1
13 1 1
14 1 1
15 1 1
16 1 1
17 1 1
18 1 1
19 1 1
20 1 1
21 1 1
22 1 1
23 1 1
24 1 1
25 1 1
26 1 1
27 1 1
28 1 1
29 1 1
0 2 1
1 2 1
2 2 1
3 2 1
4 2 1
5 2 1
6 2 1
7 2 1
8 2 1
9 2 1
10 2 1
11 2 1
12 2 1
13 2 1
14 2 1
15 2 1
16 2 1
17 2 1
18 2 1
19 2 1
20 2 1
21 2 1
22 2 1
23 2 1
24 2 1
25 2 1
26 2 1
27 2 1
28 2 1
29 2 1
0 3 1
1 3 1
2 3 1
3 3 1
4 3 1
5 3 1
6 3 1
7 3 1
8 3 1
9 3 1
10 3 1
11 3 1
12 3 1
13 3 1
14 3 1
15 3 1
16 3 1
17 3 1
18 3 1
19 3 1
20 3 1
21 3 1
22 3 1
23 3 1
24 3 1
25 3 1
26 3 1
27 3 1
28 3 1
29 3 1
0 4 1
1 4 1
2 4 1
3 4 1
4 4 1
5 4 1
6 4 1
7 4 1
8 4 1
9 4 1
10 4 1
11 4 1
12 4 1
13 4 1
14 4 1
15 4 1
16 4 1
17 4 1
18 4 1
19 4 1
20 4 1
21 4 1
22 4 1
23 4 1
24 4 1
25 4 1
26 4 1
27 4 1
28 4 1
29 4 1
0 5 1
1 5 1
2 5 1
3 5 1
4 5 1
5 5 1
6 5 1
7 5 1
8 5 1
9 5 1
10 5 1
11 5 1
12 5 1
13 5 1
14 5 1
15 5 1
16 5 1
17 5 1
18 5 1
19 5 1
20 5 1
21 5 1
22 5 1
23 5 1
24 5 1
25 5 1
26 5 1
27 5 1
28 5 1
29 5 1
0 6 1
1 6 1
2 6 1
3 6 1
4 6 1
5 6 1
6 6 1
7 6 1
8 6 1
9 6 1
10 6 1
11 6 1
12 6 1
13 6 1
14 6 1
15 6 1
16 6 1
17 6 1
18 6 1
19 6 1
20 6 1
21 6 1
22 6 1
23 6 1
24 6 1
25 6 1
26 6 1
27 6 1
28 6 1
29 6 1
0 7 1
1 7 1
2 7 1
3 7 1
4 7 1
5 7 1
6 7 1
7 7 1
8 7 1
9 7 1
10 7 1
11 7 1
12 7 1
13 7 1
14 7 1
15 7 1
16 7 1
17 7 1
18 7 1
19 7 1
20 7 1
21 7 1
22 7 1
23 7 1
24 7 1
25 7 1
26 7 1
27 7 1
28 7 1
29 7 1
0 8 1
1 8 1
2 8 1
3 8 1
4 8 1
5 8 1
6 8 1
7 8 1
8 8 1
9 8 1
10 8 1
11 8 1
12 8 1
13 8 1
14 8 1
15 8 1
16 8 1
17 8 1
18 8 1
19 8 1
20 8 1
21 8 1
22 8 1
23 8 1
24 8 1
25 8 1
26 8 1
27 8 1
28 8 1
29 8 1
0 9 1
1 9 1
2 9 1
3 9 1
4 9 1
5 9 1
6 9 1
7 9 1
8 9 1
9 9 1
10 9 1
11 9 1
12 9 1
13 9 1
14 9 1
15 9 1
16 9 1
17 9 1
18 9 1
19 9 1
20 9 1
21 9 1
22 9 1
23 9 1
24 9 1
25 9 1
26 9 1
27 9 1
28 9 1
29 9 1
0 10 1
1 10 1
2 10 1
3 10 1
4 10 1
5 10 1
6 10 1
7 10 1
8 10 1
9 10 1
10 10 1
11 10 1
12 10 1
13 10 1
14 10 1
15 10 1
16 10 1
17 10 1
18 10 1
19 10 1
20 10 1
21 10 1
22 10 1
23 10 1
24 10 1
25 10 1
26 10 1
27 10 1
28 10 1
29 10 1
0 11 1
1 11 1
2 11 1
3 11 1
4 11 1
5 11 1
6 11 1
7 11 1
8 11 1
9 11 1
10 11 1
11 11 1
12 11 1
13 11 1
14 11 1
15 11 1
16 11 1
17 11 1
18 11 1
19 11 1
20 11 1
21 11 1
22 11 1
23 11 1
24 11 1
25 11 1
26 11 1
27 11 1
28 11 1
29 11 1
0 12 1
1 12 1
2 12 1
3 12 1
4 12 1
5 12 1
6 12 1
7 12 1
8 12 1
9 12 1
10 12 1
11 12 1
12 12 1
13 12 1
14 12 1
15 12 1
16 12 1
17 12 1
18 12 1
19 12 1
20 12 1
21 12 1
22 12 1
23 12 1
24 12 1
25 12 1
26 12 1
27 12 1
28 12 1
29 12 1
0 13 1
1 13 1
2 13 1
3 13 1
4 13 1
5 13 1
6 13 1
7 13 1
8 13 1
9 13 1
10 13 1
11 13 1
12 13 1
13 13 1
14 13 1
15 13 1
16 13 1
17 13 1
18 13 1
19 13 1
20 13 1
21 13 1
22 13 1
23 13 1
24 13 1
25 13 1
26 13 1
27 13 1
28 13 1
29 13 1
0 14 1
1 14 1
2 14 1
3 14 1
4 14 1
5 14 1
6 14 1
7 14 1
8 14 1
9 14 1
10 14 1
11 14 1
12 14 1
13 14 1
14 14 1
15 14 1
16 14 1
17 14 1
18 14 1
19 14 1
20 14 1
21 14 1
22 14 1
23 14 1
24 14 1
25 14 1
26 14 1
27 14 1
28 14 1
29 14 1
0 15 1
1 15 1
2 15 1
3 15 1
4 15 1
5 15 1
6 15 1
7 15 1
8 15 1
9 15 1
10 15 1
11 15 1
12 15 1
[...]
POINT_DATA 27000
SCALARS speed_m_per_s float 1
LOOKUP_TABLE default
0.125000
0.000000
0.000000
0.000000
0.000000
0.000000
0.000000
0.000000
0.000000
0.000000
0.000000
0.000000
0.000000
0.000000
0.000000
0.000000
0.000000
0.000000
0.000000
0.000000
0.000000
0.000000
0.000000
0.000000
0.000000
0.000000
0.000000
0.000000
0.000000
0.000000
0.125000
0.000000
0.000000
0.000000
0.000000
0.000000
0.000000
0.000000
0.000000
0.000000
0.000000
0.000000
0.000000
0.000000
0.000000
0.000000
0.000000
0.000000
0.000000
0.000000
0.000000
0.000000
0.000000
0.000000
0.000000
0.000000
0.000000
0.000000
0.000000
0.000000
0.125000
0.000000
0.000000
0.000000
0.000000
0.000000
0.000000
0.000000
0.000000
0.000000
0.000000
0.000000
0.000000
0.000000
0.000000
0.000000
0.000000
0.000000
0.000000
0.000000
0.000000
0.000000
0.000000
0.000000
0.000000
0.000000
0.000000
0.000000
0.000000
0.000000
0.125000
0.000000
0.000000
0.000000
0.000000
0.000000
0.000000
0.000000
0.000000
0.000000
0.000000
0.000000
0.000000
0.000000
0.000000
0.000000
0.000000
0.000000
0.000000
0.000000
0.000000
0.000000
0.000000
0.000000
0.000000
0.000000
0.000000
0.000000
0.000000
0.000000
0.125000
0.000000
0.000000
0.000000
0.000000
0.000000
0.000000
0.000000
0.000000
0.000000
0.000000
0.000000
0.000000
0.000000
0.000000
0.000000
0.000000
0.000000
0.000000
0.000000
0.000000
0.000000
0.000000
0.000000
0.000000
0.000000
0.000000
0.000000
0.000000
0.000000
0.125000
0.000000
0.000000
0.000000
0.000000
0.000000
0.000000
0.000000
0.000000
0.000000
0.000000
0.000000
0.000000
0.000000
0.000000
0.000000
0.000000
0.000000
0.000000
0.000000
0.000000
0.000000
0.000000
0.000000
0.000000
0.000000
0.000000
0.000000
0.000000
0.000000
0.125000
0.000000
0.000000
0.000000
0.000000
0.000000
0.000000
0.000000
0.000000
0.000000
0.000000
0.000000
0.000000
0.000000
0.000000
0.000000
0.000000
0.000000
0.000000
0.000000
0.000000
0.000000
0.000000
0.000000
0.000000
0.000000
0.000000
0.000000
0.000000
0.000000
0.125000
0.000000
0.000000
0.000000
0.000000
0.000000
0.000000
0.000000
0.000000
0.000000
0.000000
0.000000
0.000000
0.000000
0.000000
0.000000
0.000000
0.000000
0.000000
0.000000
0.000000
0.000000
0.000000
0.000000
0.000000
0.000000
0.000000
0.000000
0.000000
0.000000
0.125000
0.000000
0.000000
0.000000
0.000000
0.000000
0.000000
0.000000
0.000000
0.000000
0.000000
0.000000
0.000000
0.000000
0.000000
0.000000
0.000000
0.000000
0.000000
0.000000
0.000000
0.000000
0.000000
0.000000
0.000000
0.000000
0.000000
0.000000
0.000000
0.000000
0.125000
0.000000
0.000000
0.000000
0.000000
0.000000
0.000000
0.000000
0.000000
0.000000
0.000000
0.000000
0.000000
0.000000
0.000000
0.000000
0.000000
0.000000
0.000000
0.000000
0.000000
0.000000
0.000000
0.000000
0.000000
0.000000
0.000000
0.000000
0.000000
0.000000
0.125000
0.000000
0.000000
0.000000
0.000000
0.000000
0.000000
0.000000
0.000000
0.000000
0.000000
0.000000
0.000000
0.000000
0.000000
0.000000
0.000000
0.000000
0.000000
0.000000
0.000000
0.000000
0.000000
0.000000
0.000000
0.000000
0.000000
0.000000
0.000000
0.000000
0.125000
0.000000
0.000000
0.000000
0.000000
0.000000
0.000000
0.000000
0.000000
0.000000
0.000000
0.000000
0.000000
0.000000
0.000000
0.000000
0.000000
0.000000
0.000000
0.000000
0.000000
0.000000
0.000000
0.000000
0.000000
0.000000
0.000000
0.000000
0.000000
0.000000
0.125000
0.000000
0.000000
0.000000
0.000000
0.000000
0.000000
0.000000
0.000000
0.000000
0.000000
0.000000
0.000000
0.000000
0.000000
0.000000
0.000000
0.000000
0.000000
0.000000
0.000000
0.000000
0.000000
0.000000
0.000000
0.000000
0.000000
0.000000
0.000000
0.000000
0.125000
0.000000
0.000000
0.000000
0.000000
0.000000
0.000000
0.000000
0.000000
0.000000
0.000000
0.000000
0.000000
0.000000
0.000000
0.000000
0.000000
0.000000
0.000000
0.000000
0.000000
0.000000
0.000000
0.000000
0.000000
0.000000
0.000000
0.000000
0.000000
0.000000
0.125000
0.000000
0.000000
0.000000
0.000000
0.000000
0.000000
0.000000
0.000000
0.000000
0.000000
0.000000
0.000000
0.000000
0.000000
0.000000
0.000000
0.000000
0.000000
0.000000
0.000000
0.000000
0.000000
0.000000
0.000000
0.000000
0.000000
0.000000
0.000000
0.000000
0.125000
0.000000
0.000000
0.000000
0.000000
0.000000
0.000000
0.000000
0.000000
0.000000
0.000000
0.000000
0.000000
0.000000
0.000000
0.000000
0.000000
0.000000
0.000000
0.000000
0.000000
0.000000
0.000000
0.000000
0.000000
0.000000
0.000000
0.000000
0.000000
0.000000
0.125000
0.000000
0.000000
0.000000
0.000000
0.000000
0.000000
0.000000
0.000000
0.000000
0.000000
0.000000
0.000000
0.000000
0.000000
0.000000
0.000000
0.000000
0.000000
0.000000
0.000000
0.000000
0.000000
0.000000
0.000000
0.000000
0.000000
0.000000
0.000000
0.000000
0.125000
0.000000
0.000000
0.000000
0.000000
0.000000
0.000000
0.000000
0.000000
0.000000
0.000000
0.000000
0.000000
0.000000
0.000000
0.000000
0.000000
0.000000
0.000000
0.000000
0.000000
0.000000
0.000000
0.000000
0.000000
0.000000
0.000000
0.000000
0.000000
0.000000
0.125000
0.000000
0.000000
0.000000
0.000000
0.000000
0.000000
0.000000
0.000000
0.000000
0.000000
0.000000
0.000000
0.000000
0.000000
0.000000
0.000000
0.000000
0.000000
0.000000
0.000000
0.000000
0.000000
0.000000
0.000000
0.000000
0.000000
0.000000
0.000000
0.000000
0.125000
0.000000
0.000000
0.000000
0.000000
0.000000
0.000000
0.000000
0.000000
0.000000
0.000000
0.000000
0.000000
0.000000
0.000000
0.000000
0.000000
0.000000
0.000000
0.000000
0.000000
0.000000
0.000000
0.000000
0.000000
0.000000
0.000000
0.000000
0.000000
0.000000
0.125000
0.000000
0.000000
0.000000
0.000000
0.000000
0.000000
0.000000
0.000000
0.000000
0.000000
0.000000
0.000000
0.000000
0.000000
0.000000
0.000000
0.000000
0.000000
0.000000
0.000000
0.000000
0.000000
0.000000
0.000000
0.000000
0.000000
0.000000
0.000000
0.000000
0.125000
0.000000
0.000000
0.000000
0.000000
0.000000
0.000000
0.000000
0.000000
0.000000
0.000000
0.000000
0.000000
0.000000
0.000000
0.000000
0.000000
0.000000
0.000000
0.000000
0.000000
0.000000
0.000000
0.000000
0.000000
0.000000
0.000000
0.000000
0.000000
0.000000
0.125000
0.000000
0.000000
0.000000
0.000000
0.000000
0.000000
0.000000
0.000000
0.000000
0.000000
0.000000
0.000000
0.000000
0.000000
0.000000
0.000000
0.000000
0.000000
0.000000
0.000000
0.000000
0.000000
0.000000
0.000000
0.000000
0.000000
0.000000
0.000000
0.000000
0.125000
0.000000
0.000000
0.000000
0.000000
0.000000
0.000000
0.000000
0.000000
0.000000
0.000000
0.000000
0.000000
0.000000
0.000000
0.000000
0.000000
0.000000
0.000000
0.000000
0.000000
0.000000
0.000000
0.000000
0.000000
0.000000
0.000000
0.000000
0.000000
0.000000
0.125000
0.000000
0.000000
0.000000
0.000000
0.000000
0.000000
0.000000
0.000000
0.000000
0.000000
0.000000
0.000000
0.000000
0.000000
0.000000
0.000000
0.000000
0.000000
0.000000
0.000000
0.000000
0.000000
0.000000
0.000000
0.000000
0.000000
0.000000
0.000000
0.000000
0.125000
0.000000
0.000000
0.000000
0.000000
0.000000
0.000000
0.000000
0.000000
0.000000
0.000000
0.000000
0.000000
0.000000
0.000000
0.000000
0.000000
0.000000
0.000000
0.000000
0.000000
0.000000
0.000000
0.000000
0.000000
0.000000
0.000000
0.000000
0.000000
0.000000
0.125000
0.000000
0.000000
0.000000
0.000000
0.000000
0.000000
0.000000
0.000000
0.000000
0.000000
0.000000
0.000000
0.000000
0.000000
0.000000
0.000000
0.000000
0.000000
0.000000
0.000000
0.000000
0.000000
0.000000
0.000000
0.000000
0.000000
0.000000
0.000000
0.000000
0.125000
0.000000
0.000000
0.000000
0.000000
0.000000
0.000000
0.000000
0.000000
0.000000
0.000000
0.000000
0.000000
0.000000
0.000000
0.000000
0.000000
0.000000
0.000000
0.000000
0.000000
0.000000
0.000000
0.000000
0.000000
0.000000
0.000000
0.000000
0.000000
0.000000
0.125000
0.000000
0.000000
0.000000
0.000000
0.000000
0.000000
0.000000
0.000000
0.000000
0.000000
0.000000
0.000000
0.000000
0.000000
0.000000
0.000000
0.000000
0.000000
0.000000
0.000000
0.000000
0.000000
0.000000
0.000000
0.000000
0.000000
0.000000
0.000000
0.000000
0.125000
0.000000
0.000000
0.000000
0.000000
0.000000
0.000000
0.000000
0.000000
0.000000
0.000000
0.000000
0.000000
0.000000
0.000000
0.000000
0.000000
0.000000
0.000000
0.000000
0.000000
0.000000
0.000000
0.000000
0.000000
0.000000
0.000000
0.000000
0.000000
0.000000
0.125000
0.000000
0.000000
0.000000
0.000000
0.000000
0.000000
0.000000
0.000000
0.000000
0.000000
0.000000
0.000000
0.000000
0.000000
0.000000
0.000000
0.000000
0.000000
0.000000
0.000000
0.000000
0.000000
0.000000
0.000000
0.000000
0.000000
0.000000
0.000000
0.000000
0.125000
0.065393
0.038514
0.028045
0.026591
0.025558
0.024502
0.023704
0.023068
0.022506
0.021872
0.021253
0.020639
0.020189
0.018715
0.017400
0.016021
0.013195
0.012558
0.012077
0.011581
0.011077
0.010621
0.010211
0.009800
0.009383
0.008967
0.008551
0.008214
0.000000
0.125000
0.069089
0.047985
0.036977
0.033282
0.031234
0.029658
0.028641
0.027756
0.027144
0.026631
0.026204
0.025847
0.025453
0.024321
0.021248
0.020220
0.017532
0.016336
0.015559
0.014969
0.014441
0.013986
0.013542
0.013113
0.012660
0.012187
0.011696
0.011278
0.000000
0.125000
0.069572
0.050195
0.038654
0.034237
0.032328
0.030800
0.029532
0.028718
0.028129
0.027730
0.027413
0.027159
0.026860
0.026050
0.023369
0.022377
0.019174
0.017412
0.016616
0.016132
0.015716
0.015303
0.014912
0.014505
0.014092
0.013645
0.013175
0.012759
0.000000
0.125000
0.069202
0.049669
0.038905
0.035654
0.033909
0.032180
0.030969
0.030136
0.029606
0.029174
0.028863
0.028606
0.028371
0.027974
0.025517
0.024947
0.021382
0.019024
0.018133
0.017645
0.017250
0.016880
0.016523
0.016145
0.015753
0.015339
0.014895
0.014487
0.000000
0.125000
0.068975
0.048898
0.038576
0.035897
0.034452
0.033010
0.031906
0.031123
0.030571
0.030152
0.029831
0.029546
0.029361
0.029366
0.027190
0.027044
0.023069
0.020220
0.019171
0.018660
0.018274
0.017906
0.017555
0.017188
0.016809
0.016407
0.015978
0.015574
0.000000
0.125000
0.068963
0.048597
0.038359
0.035899
0.034867
0.033724
0.032699
0.031979
0.031430
0.031020
0.030697
0.030374
0.030205
0.030514
0.028503
0.028649
0.024529
0.021330
0.020167
0.019647
0.019253
0.018872
0.018508
0.018145
0.017774
0.017380
0.016959
0.016552
0.000000
0.125000
0.068911
0.048372
0.038076
0.035704
0.034800
0.033770
0.032893
0.032213
0.031730
0.031332
0.031036
0.030755
0.030613
0.031153
0.029349
0.029705
0.025415
0.022018
0.020773
0.020201
0.019783
0.019361
0.018982
0.018594
0.018215
0.017819
0.017390
0.016977
0.000000
0.125000
0.068888
0.048373
0.038064
0.035722
0.034858
0.033896
0.033072
0.032492
0.032023
0.031668
0.031386
0.031113
0.030985
0.031615
0.029900
0.030387
0.026095
0.022630
0.021362
0.020780
0.020343
0.019913
0.019507
0.019123
0.018731
0.018334
0.017899
0.017486
0.000000
0.125000
0.068805
0.048298
0.037976
0.035564
0.034639
0.033651
0.032865
0.032324
0.031922
0.031607
0.031372
0.031141
0.031052
0.031714
0.030189
0.030587
0.026353
0.022893
0.021606
0.020971
0.020499
0.020027
0.019603
0.019177
0.018759
0.018345
0.017895
0.017461
0.000000
0.125000
0.068712
0.048321
0.037957
0.035467
0.034413
0.033293
0.032463
0.031913
0.031547
0.031272
0.031078
0.030939
0.030784
0.031421
0.030050
0.030319
0.026248
0.022928
0.021675
0.020986
0.020447
0.019951
0.019493
0.019056
0.018616
0.018185
0.017733
0.017295
0.000000
0.125000
0.068650
0.048316
0.037785
0.035057
0.033818
0.032530
0.031656
0.031024
0.030703
0.030479
0.030400
0.030380
0.030150
0.030823
0.029469
0.029560
0.025940
0.022750
0.021411
0.020598
0.019935
0.019363
0.018850
0.018375
0.017919
0.017473
0.017004
0.016561
0.000000
0.125000
0.068421
0.047828
0.037134
0.033953
0.032398
0.030948
0.029945
0.029282
0.028895
0.028700
0.028719
0.028756
0.028576
0.029406
0.028164
0.028148
0.024905
0.021912
0.020312
0.019316
0.018547
0.017914
0.017374
0.016871
0.016419
0.015969
0.015483
0.015025
0.000000
0.125000
0.068049
0.046854
0.035908
0.032377
0.030622
0.029028
0.027979
0.027202
0.026783
0.026591
0.026631
0.026714
0.026841
0.027800
0.026827
0.027258
0.023985
0.021000
0.019088
0.017836
0.016936
0.016258
0.015671
0.015184
0.014717
0.014270
0.013788
0.013320
0.000000
0.125000
0.066237
0.044014
0.032673
0.028095
0.025777
0.024132
0.023177
0.022467
0.022016
0.021605
0.021379
0.021107
0.021197
0.022067
0.023253
0.023679
0.019319
0.016447
0.014743
0.013541
0.012683
0.012074
0.011555
0.011085
0.010631
0.010197
0.009739
0.009300
0.000000
0.125000
0.047903
0.027147
0.018559
0.014706
0.012240
0.010261
0.009009
0.008243
0.007722
0.007359
0.007127
0.006979
0.006836
0.007711
0.010811
0.013048
0.009858
0.008029
0.006773
0.005818
0.005090
0.004569
0.004218
0.003944
0.003699
0.003507
0.003316
0.003118
0.000000
0.125000
0.067624
0.045613
0.031113
0.027014
0.025168
0.023761
0.022923
0.022313
0.021810
0.021245
0.020724
0.020144
0.019821
0.018692
0.019938
0.019987
0.016146
0.014160
0.013138
0.012357
0.011665
0.011052
0.010549
0.010089
0.009623
0.009170
0.008697
0.008278
0.000000
0.125000
0.069137
0.051998
0.040734
0.036378
0.033954
0.032061
0.030903
0.030045
0.029517
0.029051
0.028779
0.028541
0.028053
0.027617
0.025745
0.025574
0.023146
0.021060
0.019699
0.018626
0.017754
0.017114
0.016529
0.015998
0.015453
0.014901
0.014333
0.013811
0.000000
0.125000
0.068350
0.051538
0.041483
0.037665
0.035670
0.033989
0.032771
0.031873
0.031295
0.030906
0.030731
0.030549
0.029888
0.029605
0.027964
0.027217
0.024291
0.022127
0.020980
0.020233
0.019643
0.019091
0.018553
0.018029
0.017495
0.016965
0.016407
0.015884
0.000000
0.125000
0.067944
0.050275
0.041106
0.038670
0.037300
0.035797
0.034643
0.033810
0.033264
0.032863
0.032609
0.032397
0.031905
0.031903
0.030201
0.029749
0.026262
0.023609
0.022663
0.022154
0.021704
0.021253
0.020794
0.020311
0.019818
0.019313
0.018774
0.018269
0.000000
0.125000
0.067813
0.049209
0.040205
0.038350
0.037477
0.036363
0.035481
0.034740
0.034220
0.033785
0.033459
0.033196
0.032968
0.033298
0.031645
0.031574
0.027360
0.024259
0.023293
0.022903
0.022591
0.022258
0.021878
0.021453
0.020991
0.020509
0.019993
0.019498
0.000000
0.125000
0.067830
0.048764
0.039705
0.038052
0.037550
0.036765
0.036026
0.035416
0.034908
0.034465
0.034128
0.033838
0.033710
0.034316
0.032542
0.032776
0.028315
0.024893
0.023814
0.023462
0.023224
0.022935
0.022593
0.022205
0.021765
0.021298
0.020791
0.020295
0.000000
0.125000
0.067824
0.048593
0.039482
0.037895
0.037534
0.036842
0.036193
0.035590
0.035113
0.034662
0.034335
0.034051
0.033935
0.034690
0.032906
0.033318
0.028726
0.025167
0.024049
0.023717
0.023502
0.023221
0.022896
0.022523
0.022097
0.021644
0.021139
0.020644
0.000000
0.125000
0.067793
0.048595
0.039472
0.037861
0.037450
0.036697
0.036000
0.035406
0.034902
0.034475
0.034172
0.033911
0.033805
0.034587
0.032873
0.033248
0.028687
0.025137
0.024013
0.023646
0.023383
0.023071
0.022717
0.022321
0.021882
0.021419
0.020912
0.020411
0.000000
0.125000
0.067797
0.048941
0.039904
0.038163
0.037529
0.036526
0.035666
0.035020
0.034536
0.034112
0.033830
0.033592
0.033453
0.034090
0.032417
0.032648
0.028358
0.025014
0.023935
0.023527
0.023203
0.022834
0.022440
0.022022
0.021563
0.021082
0.020573
0.020074
0.000000
0.125000
0.067812
0.049480
0.040349
0.038103
0.036961
0.035659
0.034626
0.033853
0.033386
0.033021
0.032808
0.032649
0.032445
0.032882
0.031442
0.031388
0.027418
0.024381
0.023294
0.022726
0.022278
0.021817
0.021348
0.020874
0.020388
0.019885
0.019360
0.018859
0.000000
0.125000
0.067942
0.050822
0.041593
0.038268
0.036032
0.034347
0.033229
0.032439
0.031940
0.031635
0.031515
0.031414
0.031120
0.031361
0.029975
0.029543
0.026372
0.023747
0.022665
0.021818
0.021140
0.020577
0.020058
0.019538
0.019031
0.018525
0.017981
0.017468
0.000000
0.125000
0.068024
0.051325
0.039780
0.035643
0.033379
0.031522
0.030281
0.029559
0.029044
0.028797
0.028661
0.028654
0.028464
0.028782
0.027686
0.027232
0.024668
0.021625
0.020140
0.019212
0.018453
0.017761
0.017191
0.016670
0.016151
0.015636
0.015080
0.014551
0.000000
0.125000
0.068967
0.051615
0.037339
0.031718
0.029822
0.028289
0.027212
0.026259
0.025885
0.025468
0.025278
0.025245
0.025241
0.025615
0.025081
0.025260
0.023933
0.020412
0.017967
0.016611
0.015729
0.015064
0.014464
0.013970
0.013481
0.012969
0.012435
0.011928
0.000000
0.125000
0.047360
0.022839
0.017625
0.017057
0.015567
0.014611
0.014107
0.013861
0.013493
0.013174
0.012807
0.012510
0.012410
0.012434
0.013120
0.014859
0.010326
0.008978
0.008408
0.007697
0.007144
0.006757
0.006493
0.006213
0.005915
0.005636
0.005331
0.005044
0.000000
0.125000
0.000000
0.000000
0.000000
0.000000
0.000000
0.000000
0.000000
0.000000
0.000000
0.000000
0.000000
0.000000
0.000000
0.000000
0.000000
0.000000
0.000000
0.000000
0.000000
0.000000
0.000000
0.000000
0.000000
0.000000
0.000000
0.000000
0.000000
0.000000
0.000000
0.125000
0.069089
0.047984
0.036976
0.033293
0.031205
0.029684
0.028538
0.027713
0.027162
0.026558
0.026190
0.025853
0.025463
0.024286
0.021123
0.020062
0.017530
0.016311
0.015586
0.014963
0.014446
0.013976
0.013542
0.013120
0.012672
0.012188
0.011698
0.011275
0.000000
0.125000
0.080961
0.071067
0.058679
0.051078
0.046296
0.043494
0.042009
0.040707
0.039985
0.039465
0.039335
0.039286
0.038568
0.036332
0.024081
0.028864
0.026764
0.025500
0.024501
0.023609
0.022960
0.022448
0.021913
0.021385
0.020791
0.020144
0.019518
0.019030
0.000000
0.125000
0.083976
0.079300
0.069266
0.061230
0.055675
0.052372
0.050217
0.048827
0.047948
0.047475
0.047417
0.047280
0.046244
0.043227
0.024280
0.034940
0.032621
0.031478
0.030620
0.029807
0.029219
0.028697
0.028184
0.027615
0.026996
0.026343
0.025718
0.025244
0.000000
0.125000
0.083134
0.078921
0.071445
0.065319
0.060200
0.056629
0.054511
0.053092
0.052270
0.051729
0.051573
0.051325
0.050312
0.047513
0.024591
0.039274
0.036625
0.035313
0.034423
0.033625
0.033050
0.032568
0.032083
0.031537
0.030932
0.030317
0.029732
0.029273
0.000000
0.125000
0.082680
0.078304
0.071924
0.066999
0.062711
0.059689
0.057788
0.056435
0.055546
0.054943
0.054677
0.054315
0.053407
0.050877
0.025106
0.042856
0.040032
0.038561
0.037532
0.036718
0.036174
0.035718
0.035239
0.034710
0.034134
0.033552
0.032997
0.032555
0.000000
0.125000
0.082579
0.077818
0.071389
0.066953
0.063415
0.060989
0.059364
0.058130
0.057253
0.056694
0.056468
0.056120
0.055405
0.053201
0.025752
0.045463
0.042579
0.040923
0.039677
0.038748
0.038153
0.037675
0.037140
0.036588
0.036019
0.035449
0.034896
0.034447
0.000000
0.125000
0.082595
0.077643
0.071180
0.066987
0.063767
0.061629
0.060311
0.059171
0.058420
0.057899
0.057698
0.057368
0.056754
0.054729
0.026134
0.047270
0.044372
0.042736
0.041438
0.040429
0.039795
0.039295
0.038755
0.038195
0.037628
0.037066
0.036523
0.036071
0.000000
0.125000
0.082440
0.077279
0.070680
0.066459
0.063330
0.061335
0.060135
0.059178
0.058518
0.058114
0.058024
0.057821
0.057384
0.055572
0.026552
0.048333
0.045390
0.043714
0.042356
0.041298
0.040573
0.039994
0.039367
0.038767
0.038144
0.037547
0.036976
0.036512
0.000000
0.125000
0.082387
0.077315
0.070652
0.066345
0.063154
0.061152
0.060024
0.059180
0.058629
0.058304
0.058280
0.058136
0.057745
0.055936
0.026896
0.048837
0.046068
0.044551
0.043273
0.042224
0.041483
0.040851
0.040203
0.039569
0.038923
0.038310
0.037731
0.037265
0.000000
0.125000
0.082223
0.077029
0.070117
0.065431
0.061886
0.059610
0.058388
0.057549
0.057101
0.056911
0.057078
0.057170
0.056877
0.055247
0.026847
0.048349
0.045686
0.044318
0.043039
0.041843
0.040912
0.040154
0.039401
0.038704
0.037994
0.037341
0.036753
0.036266
0.000000
0.125000
0.082168
0.076709
0.069179
0.063881
0.059822
0.057187
0.055808
0.054842
0.054484
0.054466
0.054893
0.055205
0.055016
0.053641
0.026437
0.047062
0.044869
0.043573
0.042115
0.040665
0.039516
0.038623
0.037813
0.037072
0.036362
0.035695
0.035088
0.034603
0.000000
0.125000
0.081753
0.075500
0.067006
0.060650
0.055779
0.052738
0.051075
0.050074
0.049691
0.049842
0.050619
0.051318
0.051609
0.050729
0.025291
0.044884
0.043102
0.041587
0.039455
0.037528
0.036114
0.035096
0.034245
0.033460
0.032748
0.032082
0.031458
0.030955
0.000000
0.125000
0.080330
0.071565
0.061217
0.053817
0.048466
0.045190
0.043453
0.042319
0.041885
0.042061
0.042885
0.043918
0.045297
0.045684
0.024256
0.041985
0.039601
0.036979
0.033993
0.031727
0.030245
0.029256
0.028433