# vtk DataFile Version 3.0
LBM Simulation Data (speed_m_per_s) [FIXED_SCALING_v11]
ASCII
DATASET STRUCTURED_GRID
DIMENSIONS 30 30 30
POINTS 27000 float
0 0 0
1 0 0
2 0 0
3 0 0
4 0 0
5 0 0
6 0 0
7 0 0
8 0 0
9 0 0
10 0 0
11 0 0
12 0 0
13 0 0
14 0 0
15 0 0
16 0 0
17 0 0
18 0 0
19 0 0
20 0 0
21 0 0
22 0 0
23 0 0
24 0 0
25 0 0
26 0 0
27 0 0
28 0 0
29 0 0
0 1 0
1 1 0
2 1 0
3 1 0
4 1 0
5 1 0
6 1 0
7 1 0
8 1 0
9 1 0
10 1 0
11 1 0
12 1 0
13 1 0
14 1 0
15 1 0
16 1 0
17 1 0
18 1 0
19 1 0
20 1 0
21 1 0
22 1 0
23 1 0
24 1 0
25 1 0
26 1 0
27 1 0
28 1 0
29 1 0
0 2 0
1 2 0
2 2 0
3 2 0
4 2 0
5 2 0
6 2 0
7 2 0
8 2 0
9 2 0
10 2 0
11 2 0
12 2 0
13 2 0
14 2 0
15 2 0
16 2 0
17 2 0
18 2 0
19 2 0
20 2 0
21 2 0
22 2 0
23 2 0
24 2 0
25 2 0
26 2 0
27 2 0
28 2 0
29 2 0
0 3 0
1 3 0
2 3 0
3 3 0
4 3 0
5 3 0
6 3 0
7 3 0
8 3 0
9 3 0
10 3 0
11 3 0
12 3 0
13 3 0
14 3 0
15 3 0
16 3 0
17 3 0
18 3 0
19 3 0
20 3 0
21 3 0
22 3 0
23 3 0
24 3 0
25 3 0
26 3 0
27 3 0
28 3 0
29 3 0
0 4 0
1 4 0
2 4 0
3 4 0
4 4 0
5 4 0
6 4 0
7 4 0
8 4 0
9 4 0
10 4 0
11 4 0
12 4 0
13 4 0
14 4 0
15 4 0
16 4 0
17 4 0
18 4 0
19 4 0
20 4 0
21 4 0
22 4 0
23 4 0
24 4 0
25 4 0
26 4 0
27 4 0
28 4 0
29 4 0
0 5 0
1 5 0
2 5 0
3 5 0
4 5 0
5 5 0
6 5 0
7 5 0
8 5 0
9 5 0
10 5 0
11 5 0
12 5 0
13 5 0
14 5 0
15 5 0
16 5 0
17 5 0
18 5 0
19 5 0
20 5 0
21 5 0
22 5 0
23 5 0
24 5 0
25 5 0
26 5 0
27 5 0
28 5 0
29 5 0
0 6 0
1 6 0
2 6 0
3 6 0
4 6 0
5 6 0
6 6 0
7 6 0
8 6 0
9 6 0
10 6 0
11 6 0
12 6 0
13 6 0
14 6 0
15 6 0
16 6 0
17 6 0
18 6 0
19 6 0
20 6 0
21 6 0
22 6 0
23 6 0
24 6 0
25 6 0
26 6 0
27 6 0
28 6 0
29 6 0
0 7 0
1 7 0
2 7 0
3 7 0
4 7 0
5 7 0
6 7 0
7 7 0
8 7 0
9 7 0
10 7 0
11 7 0
12 7 0
13 7 0
14 7 0
15 7 0
16 7 0
17 7 0
18 7 0
19 7 0
20 7 0
21 7 0
22 7 0
23 7 0
24 7 0
25 7 0
26 7 0
27 7 0
28 7 0
29 7 0
0 8 0
1 8 0
2 8 0
3 8 0
4 8 0
5 8 0
6 8 0
7 8 0
8 8 0
9 8 0
10 8 0
11 8 0
12 8 0
13 8 0
14 8 0
15 8 0
16 8 0
17 8 0
18 8 0
19 8 0
20 8 0
21 8 0
22 8 0
23 8 0
24 8 0
25 8 0
26 8 0
27 8 0
28 8 0
29 8 0
0 9 0
1 9 0
2 9 0
3 9 0
4 9 0
5 9 0
6 9 0
7 9 0
8 9 0
9 9 0
10 9 0
11 9 0
12 9 0
13 9 0
14 9 0
15 9 0
16 9 0
17 9 0
18 9 0
19 9 0
20 9 0
21 9 0
22 9 0
23 9 0
24 9 0
25 9 0
26 9 0
27 9 0
28 9 0
29 9 0
0 10 0
1 10 0
2 10 0
3 10 0
4 10 0
5 10 0
6 10 0
7 10 0
8 10 0
9 10 0
10 10 0
11 10 0
12 10 0
13 10 0
14 10 0
15 10 0
16 10 0
17 10 0
18 10 0
19 10 0
20 10 0
21 10 0
22 10 0
23 10 0
24 10 0
25 10 0
26 10 0
27 10 0
28 10 0
29 10 0
0 11 0
1 11 0
2 11 0
3 11 0
4 11 0
5 11 0
6 11 0
7 11 0
8 11 0
9 11 0
10 11 0
11 11 0
12 11 0
13 11 0
14 11 0
15 11 0
16 11 0
17 11 0
18 11 0
19 11 0
20 11 0
21 11 0
22 11 0
23 11 0
24 11 0
25 11 0
26 11 0
27 11 0
28 11 0
29 11 0
0 12 0
1 12 0
2 12 0
3 12 0
4 12 0
5 12 0
6 12 0
7 12 0
8 12 0
9 12 0
10 12 0
11 12 0
12 12 0
13 12 0
14 12 0
15 12 0
16 12 0
17 12 0
18 12 0
19 12 0
20 12 0
21 12 0
22 12 0
23 12 0
24 12 0
25 12 0
26 12 0
27 12 0
28 12 0
29 12 0
0 13 0
1 13 0
2 13 0
3 13 0
4 13 0
5 13 0
6 13 0
7 13 0
8 13 0
9 13 0
10 13 0
11 13 0
12 13 0
13 13 0
14 13 0
15 13 0
16 13 0
17 13 0
18 13 0
19 13 0
20 13 0
21 13 0
22 13 0
23 13 0
24 13 0
25 13 0
26 13 0
27 13 0
28 13 0
29 13 0
0 14 0
1 14 0
2 14 0
3 14 0
4 14 0
5 14 0
6 14 0
7 14 0
8 14 0
9 14 0
10 14 0
11 14 0
12 14 0
13 14 0
14 14 0
15 14 0
16 14 0
17 14 0
18 14 0
19 14 0
20 14 0
21 14 0
22 14 0
23 14 0
24 14 0
25 14 0
26 14 0
27 14 0
28 14 0
29 14 0
0 15 0
1 15 0
2 15 0
3 15 0
4 15 0
5 15 0
6 15 0
7 15 0
8 15 0
9 15 0
10 15 0
11 15 0
12 15 0
13 15 0
14 15 0
15 15 0
16 15 0
17 15 0
18 15 0
19 15 0
20 15 0
21 15 0
22 15 0
23 15 0
24 15 0
25 15 0
26 15 0
27 15 0
28 15 0
29 15 0
0 16 0
1 16 0
2 16 0
3 16 0
4 16 0
5 16 0
6 16 0
7 16 0
8 16 0
9 16 0
10 16 0
11 16 0
12 16 0
13 16 0
14 16 0
15 16 0
16 16 0
17 16 0
18 16 0
19 16 0
20 16 0
21 16 0
22 16 0
23 16 0
24 16 0
25 16 0
26 16 0
27 16 0
28 16 0
29 16 0
0 17 0
1 17 0
2 17 0
3 17 0
4 17 0
5 17 0
6 17 0
7 17 0
8 17 0
9 17 0
10 17 0
11 17 0
12 17 0
13 17 0
14 17 0
15 17 0
16 17 0
17 17 0
18 17 0
19 17 0
20 17 0
21 17 0
22 17 0
23 17 0
24 17 0
25 17 0
26 17 0
27 17 0
28 17 0
29 17 0
0 18 0
1 18 0
2 18 0
3 18 0
4 18 0
5 18 0
6 18 0
7 18 0
8 18 0
9 18 0
10 18 0
11 18 0
12 18 0
13 18 0
14 18 0
15 18 0
16 18 0
17 18 0
18 18 0
19 18 0
20 18 0
21 18 0
22 18 0
23 18 0
24 18 0
25 18 0
26 18 0
27 18 0
28 18 0
29 18 0
0 19 0
1 19 0
2 19 0
3 19 0
4 19 0
5 19 0
6 19 0
7 19 0
8 19 0
9 19 0
10 19 0
11 19 0
12 19 0
13 19 0
14 19 0
15 19 0
16 19 0
17 19 0
18 19 0
19 19 0
20 19 0
21 19 0
22 19 0
23 19 0
24 19 0
25 19 0
26 19 0
27 19 0
28 19 0
29 19 0
0 20 0
1 20 0
2 20 0
3 20 0
4 20 0
5 20 0
6 20 0
7 20 0
8 20 0
9 20 0
10 20 0
11 20 0
12 20 0
13 20 0
14 20 0
15 20 0
16 20 0
17 20 0
18 20 0
19 20 0
20 20 0
21 20 0
22 20 0
23 20 0
24 20 0
25 20 0
26 20 0
27 20 0
28 20 0
29 20 0
0 21 0
1 21 0
2 21 0
3 21 0
4 21 0
5 21 0
6 21 0
7 21 0
8 21 0
9 21 0
10 21 0
11 21 0
12 21 0
13 21 0
14 21 0
15 21 0
16 21 0
17 21 0
18 21 0
19 21 0
20 21 0
21 21 0
22 21 0
23 21 0
24 21 0
25 21 0
26 21 0
27 21 0
28 21 0
29 21 0
0 22 0
1 22 0
2 22 0
3 22 0
4 22 0
5 22 0
6 22 0
7 22 0
8 22 0
9 22 0
10 22 0
11 22 0
12 22 0
13 22 0
14 22 0
15 22 0
16 22 0
17 22 0
18 22 0
19 22 0
20 22 0
21 22 0
22 22 0
23 22 0
24 22 0
25 22 0
26 22 0
27 22 0
28 22 0
29 22 0
0 23 0
1 23 0
2 23 0
3 23 0
4 23 0
5 23 0
6 23 0
7 23 0
8 23 0
9 23 0
10 23 0
11 23 0
12 23 0
13 23 0
14 23 0
15 23 0
16 23 0
17 23 0
18 23 0
19 23 0
20 23 0
21 23 0
22 23 0
23 23 0
24 23 0
25 23 0
26 23 0
27 23 0
28 23 0
29 23 0
0 24 0
1 24 0
2 24 0
3 24 0
4 24 0
5 24 0
6 24 0
7 24 0
8 24 0
9 24 0
10 24 0
11 24 0
12 24 0
13 24 0
14 24 0
15 24 0
16 24 0
17 24 0
18 24 0
19 24 0
20 24 0
21 24 0
22 24 0
23 24 0
24 24 0
25 24 0
26 24 0
27 24 0
28 24 0
29 24 0
0 25 0
1 25 0
2 25 0
3 25 0
4 25 0
5 25 0
6 25 0
7 25 0
8 25 0
9 25 0
10 25 0
11 25 0
12 25 0
13 25 0
14 25 0
15 25 0
16 25 0
17 25 0
18 25 0
19 25 0
20 25 0
21 25 0
22 25 0
23 25 0
24 25 0
25 25 0
26 25 0
27 25 0
28 25 0
29 25 0
0 26 0
1 26 0
2 26 0
3 26 0
4 26 0
5 26 0
6 26 0
7 26 0
8 26 0
9 26 0
10 26 0
11 26 0
12 26 0
13 26 0
14 26 0
15 26 0
16 26 0
17 26 0
18 26 0
19 26 0
20 26 0
21 26 0
22 26 0
23 26 0
24 26 0
25 26 0
26 26 0
27 26 0
28 26 0
29 26 0
0 27 0
1 27 0
2 27 0
3 27 0
4 27 0
5 27 0
6 27 0
7 27 0
8 27 0
9 27 0
10 27 0
11 27 0
12 27 0
13 27 0
14 27 0
15 27 0
16 27 0
17 27 0
18 27 0
19 27 0
20 27 0
21 27 0
22 27 0
23 27 0
24 27 0
25 27 0
26 27 0
27 27 0
28 27 0
29 27 0
0 28 0
1 28 0
2 28 0
3 28 0
4 28 0
5 28 0
6 28 0
7 28 0
8 28 0
9 28 0
10 28 0
11 28 0
12 28 0
13 28 0
14 28 0
15 28 0
16 28 0
17 28 0
18 28 0
19 28 0
20 28 0
21 28 0
22 28 0
23 28 0
24 28 0
25 28 0
26 28 0
27 28 0
28 28 0
29 28 0
0 29 0
1 29 0
2 29 0
3 29 0
4 29 0
5 29 0
6 29 0
7 29 0
8 29 0
9 29 0
10 29 0
11 29 0
12 29 0
13 29 0
14 29 0
15 29 0
16 29 0
17 29 0
18 29 0
19 29 0
20 29 0
21 29 0
22 29 0
23 29 0
24 29 0
25 29 0
26 29 0
27 29 0
28 29 0
29 29 0
0 0 1
1 0 1
2 0 1
3 0 1
4 0 1
5 0 1
6 0 1
7 0 1
8 0 1
9 0 1
10 0 1
11 0 1
12 0 1
13 0 1
14 0 1
15 0 1
16 0 1
17 0 1
18 0 1
19 0 1
20 0 1
21 0 1
22 0 1
23 0 1
24 0 1
25 0 1
26 0 1
27 0 1
28 0 1
29 0 1
0 1 1
1 1 1
2 1 1
3 1 1
4 1 1
5 1 1
6 1 1
7 1 1
8 1 1
9 1 1
10 1 1
11 1 1
12 1 1
13 1 1
14 1 1
15 1 1
16 1 1
17 1 1
18 1 1
19 1 1
20 1 1
21 1 1
22 1 1
23 1 1
24 1 1
25 1 1
26 1 1
27 1 1
28 1 1
29 1 1
0 2 1
1 2 1
2 2 1
3 2 1
4 2 1
5 2 1
6 2 1
7 2 1
8 2 1
9 2 1
10 2 1
11 2 1
12 2 1
13 2 1
14 2 1
15 2 1
16 2 1
17 2 1
18 2 1
19 2 1
20 2 1
21 2 1
22 2 1
23 2 1
24 2 1
25 2 1
26 2 1
27 2 1
28 2 1
29 2 1
0 3 1
1 3 1
2 3 1
3 3 1
4 3 1
5 3 1
6 3 1
7 3 1
8 3 1
9 3 1
10 3 1
11 3 1
12 3 1
13 3 1
14 3 1
15 3 1
16 3 1
17 3 1
18 3 1
19 3 1
20 3 1
21 3 1
22 3 1
23 3 1
24 3 1
25 3 1
26 3 1
27 3 1
28 3 1
29 3 1
0 4 1
1 4 1
2 4 1
3 4 1
4 4 1
5 4 1
6 4 1
7 4 1
8 4 1
9 4 1
10 4 1
11 4 1
12 4 1
13 4 1
14 4 1
15 4 1
16 4 1
17 4 1
18 4 1
19 4 1
20 4 1
21 4 1
22 4 1
23 4 1
24 4 1
25 4 1
26 4 1
27 4 1
28 4 1
29 4 1
0 5 1
1 5 1
2 5 1
3 5 1
4 5 1
5 5 1
6 5 1
7 5 1
8 5 1
9 5 1
10 5 1
11 5 1
12 5 1
13 5 1
14 5 1
15 5 1
16 5 1
17 5 1
18 5 1
19 5 1
20 5 1
21 5 1
22 5 1
23 5 1
24 5 1
25 5 1
26 5 1
27 5 1
28 5 1
29 5 1
0 6 1
1 6 1
2 6 1
3 6 1
4 6 1
5 6 1
6 6 1
7 6 1
8 6 1
9 6 1
10 6 1
11 6 1
12 6 1
13 6 1
14 6 1
15 6 1
16 6 1
17 6 1
18 6 1
19 6 1
20 6 1
21 6 1
22 6 1
23 6 1
24 6 1
25 6 1
26 6 1
27 6 1
28 6 1
29 6 1
0 7 1
1 7 1
2 7 1
3 7 1
4 7 1
5 7 1
6 7 1
7 7 1
8 7 1
9 7 1
10 7 1
11 7 1
12 7 1
13 7 1
14 7 1
15 7 1
16 7 1
17 7 1
18 7 1
19 7 1
20 7 1
21 7 1
22 7 1
23 7 1
24 7 1
25 7 1
26 7 1
27 7 1
28 7 1
29 7 1
0 8 1
1 8 1
2 8 1
3 8 1
4 8 1
5 8 1
6 8 1
7 8 1
8 8 1
9 8 1
10 8 1
11 8 1
12 8 1
13 8 1
14 8 1
15 8 1
16 8 1
17 8 1
18 8 1
19 8 1
20 8 1
21 8 1
22 8 1
23 8 1
24 8 1
25 8 1
26 8 1
27 8 1
28 8 1
29 8 1
0 9 1
1 9 1
2 9 1
3 9 1
4 9 1
5 9 1
6 9 1
7 9 1
8 9 1
9 9 1
10 9 1
11 9 1
12 9 1
13 9 1
14 9 1
15 9 1
16 9 1
17 9 1
18 9 1
19 9 1
20 9 1
21 9 1
22 9 1
23 9 1
24 9 1
25 9 1
26 9 1
27 9 1
28 9 1
29 9 1
0 10 1
1 10 1
2 10 1
3 10 1
4 10 1
5 10 1
6 10 1
7 10 1
8 10 1
9 10 1
10 10 1
11 10 1
12 10 1
13 10 1
14 10 1
15 10 1
16 10 1
17 10 1
18 10 1
19 10 1
20 10 1
21 10 1
22 10 1
23 10 1
24 10 1
25 10 1
26 10 1
27 10 1
28 10 1
29 10 1
0 11 1
1 11 1
2 11 1
3 11 1
4 11 1
5 11 1
6 11 1
7 11 1
8 11 1
9 11 1
10 11 1
11 11 1
12 11 1
13 11 1
14 11 1
15 11 1
16 11 1
17 11 1
18 11 1
19 11 1
20 11 1
21 11 1
22 11 1
23 11 1
24 11 1
25 11 1
26 11 1
27 11 1
28 11 1
29 11 1
0 12 1
1 12 1
2 12 1
3 12 1
4 12 1
5 12 1
6 12 1
7 12 1
8 12 1
9 12 1
10 12 1
11 12 1
12 12 1
13 12 1
14 12 1
15 12 1
16 12 1
17 12 1
18 12 1
19 12 1
20 12 1
21 12 1
22 12 1
23 12 1
24 12 1
25 12 1
26 12 1
27 12 1
28 12 1
29 12 1
0 13 1
1 13 1
2 13 1
3 13 1
4 13 1
5 13 1
6 13 1
7 13 1
8 13 1
9 13 1
10 13 1
11 13 1
12 13 1
13 13 1
14 13 1
15 13 1
16 13 1
17 13 1
18 13 1
19 13 1
20 13 1
21 13 1
22 13 1
23 13 1
24 13 1
25 13 1
26 13 1
27 13 1
28 13 1
29 13 1
0 14 1
1 14 1
2 14 1
3 14 1
4 14 1
5 14 1
6 14 1
7 14 1
8 14 1
9 14 1
10 14 1
11 14 1
12 14 1
13 14 1
14 14 1
15 14 1
16 14 1
17 14 1
18 14 1
19 14 1
20 14 1
21 14 1
22 14 1
23 14 1
24 14 1
25 14 1
26 14 1
27 14 1
28 14 1
29 14 1
0 15 1
1 15 1
2 15 1
3 15 1
4 15 1
5 15 1
6 15 1
7 15 1
8 15 1
9 15 1
10 15 1
11 15 1
12 15 1
[...]
POINT_DATA 27000
SCALARS speed_m_per_s float 1
LOOKUP_TABLE default
0.125000
0.000000
0.000000
0.000000
0.000000
0.000000
0.000000
0.000000
0.000000
0.000000
0.000000
0.000000
0.000000
0.000000
0.000000
0.000000
0.000000
0.000000
0.000000
0.000000
0.000000
0.000000
0.000000
0.000000
0.000000
0.000000
0.000000
0.000000
0.000000
0.000000
0.125000
0.000000
0.000000
0.000000
0.000000
0.000000
0.000000
0.000000
0.000000
0.000000
0.000000
0.000000
0.000000
0.000000
0.000000
0.000000
0.000000
0.000000
0.000000
0.000000
0.000000
0.000000
0.000000
0.000000
0.000000
0.000000
0.000000
0.000000
0.000000
0.000000
0.125000
0.000000
0.000000
0.000000
0.000000
0.000000
0.000000
0.000000
0.000000
0.000000
0.000000
0.000000
0.000000
0.000000
0.000000
0.000000
0.000000
0.000000
0.000000
0.000000
0.000000
0.000000
0.000000
0.000000
0.000000
0.000000
0.000000
0.000000
0.000000
0.000000
0.125000
0.000000
0.000000
0.000000
0.000000
0.000000
0.000000
0.000000
0.000000
0.000000
0.000000
0.000000
0.000000
0.000000
0.000000
0.000000
0.000000
0.000000
0.000000
0.000000
0.000000
0.000000
0.000000
0.000000
0.000000
0.000000
0.000000
0.000000
0.000000
0.000000
0.125000
0.000000
0.000000
0.000000
0.000000
0.000000
0.000000
0.000000
0.000000
0.000000
0.000000
0.000000
0.000000
0.000000
0.000000
0.000000
0.000000
0.000000
0.000000
0.000000
0.000000
0.000000
0.000000
0.000000
0.000000
0.000000
0.000000
0.000000
0.000000
0.000000
0.125000
0.000000
0.000000
0.000000
0.000000
0.000000
0.000000
0.000000
0.000000
0.000000
0.000000
0.000000
0.000000
0.000000
0.000000
0.000000
0.000000
0.000000
0.000000
0.000000
0.000000
0.000000
0.000000
0.000000
0.000000
0.000000
0.000000
0.000000
0.000000
0.000000
0.125000
0.000000
0.000000
0.000000
0.000000
0.000000
0.000000
0.000000
0.000000
0.000000
0.000000
0.000000
0.000000
0.000000
0.000000
0.000000
0.000000
0.000000
0.000000
0.000000
0.000000
0.000000
0.000000
0.000000
0.000000
0.000000
0.000000
0.000000
0.000000
0.000000
0.125000
0.000000
0.000000
0.000000
0.000000
0.000000
0.000000
0.000000
0.000000
0.000000
0.000000
0.000000
0.000000
0.000000
0.000000
0.000000
0.000000
0.000000
0.000000
0.000000
0.000000
0.000000
0.000000
0.000000
0.000000
0.000000
0.000000
0.000000
0.000000
0.000000
0.125000
0.000000
0.000000
0.000000
0.000000
0.000000
0.000000
0.000000
0.000000
0.000000
0.000000
0.000000
0.000000
0.000000
0.000000
0.000000
0.000000
0.000000
0.000000
0.000000
0.000000
0.000000
0.000000
0.000000
0.000000
0.000000
0.000000
0.000000
0.000000
0.000000
0.125000
0.000000
0.000000
0.000000
0.000000
0.000000
0.000000
0.000000
0.000000
0.000000
0.000000
0.000000
0.000000
0.000000
0.000000
0.000000
0.000000
0.000000
0.000000
0.000000
0.000000
0.000000
0.000000
0.000000
0.000000
0.000000
0.000000
0.000000
0.000000
0.000000
0.125000
0.000000
0.000000
0.000000
0.000000
0.000000
0.000000
0.000000
0.000000
0.000000
0.000000
0.000000
0.000000
0.000000
0.000000
0.000000
0.000000
0.000000
0.000000
0.000000
0.000000
0.000000
0.000000
0.000000
0.000000
0.000000
0.000000
0.000000
0.000000
0.000000
0.125000
0.000000
0.000000
0.000000
0.000000
0.000000
0.000000
0.000000
0.000000
0.000000
0.000000
0.000000
0.000000
0.000000
0.000000
0.000000
0.000000
0.000000
0.000000
0.000000
0.000000
0.000000
0.000000
0.000000
0.000000
0.000000
0.000000
0.000000
0.000000
0.000000
0.125000
0.000000
0.000000
0.000000
0.000000
0.000000
0.000000
0.000000
0.000000
0.000000
0.000000
0.000000
0.000000
0.000000
0.000000
0.000000
0.000000
0.000000
0.000000
0.000000
0.000000
0.000000
0.000000
0.000000
0.000000
0.000000
0.000000
0.000000
0.000000
0.000000
0.125000
0.000000
0.000000
0.000000
0.000000
0.000000
0.000000
0.000000
0.000000
0.000000
0.000000
0.000000
0.000000
0.000000
0.000000
0.000000
0.000000
0.000000
0.000000
0.000000
0.000000
0.000000
0.000000
0.000000
0.000000
0.000000
0.000000
0.000000
0.000000
0.000000
0.125000
0.000000
0.000000
0.000000
0.000000
0.000000
0.000000
0.000000
0.000000
0.000000
0.000000
0.000000
0.000000
0.000000
0.000000
0.000000
0.000000
0.000000
0.000000
0.000000
0.000000
0.000000
0.000000
0.000000
0.000000
0.000000
0.000000
0.000000
0.000000
0.000000
0.125000
0.000000
0.000000
0.000000
0.000000
0.000000
0.000000
0.000000
0.000000
0.000000
0.000000
0.000000
0.000000
0.000000
0.000000
0.000000
0.000000
0.000000
0.000000
0.000000
0.000000
0.000000
0.000000
0.000000
0.000000
0.000000
0.000000
0.000000
0.000000
0.000000
0.125000
0.000000
0.000000
0.000000
0.000000
0.000000
0.000000
0.000000
0.000000
0.000000
0.000000
0.000000
0.000000
0.000000
0.000000
0.000000
0.000000
0.000000
0.000000
0.000000
0.000000
0.000000
0.000000
0.000000
0.000000
0.000000
0.000000
0.000000
0.000000
0.000000
0.125000
0.000000
0.000000
0.000000
0.000000
0.000000
0.000000
0.000000
0.000000
0.000000
0.000000
0.000000
0.000000
0.000000
0.000000
0.000000
0.000000
0.000000
0.000000
0.000000
0.000000
0.000000
0.000000
0.000000
0.000000
0.000000
0.000000
0.000000
0.000000
0.000000
0.125000
0.000000
0.000000
0.000000
0.000000
0.000000
0.000000
0.000000
0.000000
0.000000
0.000000
0.000000
0.000000
0.000000
0.000000
0.000000
0.000000
0.000000
0.000000
0.000000
0.000000
0.000000
0.000000
0.000000
0.000000
0.000000
0.000000
0.000000
0.000000
0.000000
0.125000
0.000000
0.000000
0.000000
0.000000
0.000000
0.000000
0.000000
0.000000
0.000000
0.000000
0.000000
0.000000
0.000000
0.000000
0.000000
0.000000
0.000000
0.000000
0.000000
0.000000
0.000000
0.000000
0.000000
0.000000
0.000000
0.000000
0.000000
0.000000
0.000000
0.125000
0.000000
0.000000
0.000000
0.000000
0.000000
0.000000
0.000000
0.000000
0.000000
0.000000
0.000000
0.000000
0.000000
0.000000
0.000000
0.000000
0.000000
0.000000
0.000000
0.000000
0.000000
0.000000
0.000000
0.000000
0.000000
0.000000
0.000000
0.000000
0.000000
0.125000
0.000000
0.000000
0.000000
0.000000
0.000000
0.000000
0.000000
0.000000
0.000000
0.000000
0.000000
0.000000
0.000000
0.000000
0.000000
0.000000
0.000000
0.000000
0.000000
0.000000
0.000000
0.000000
0.000000
0.000000
0.000000
0.000000
0.000000
0.000000
0.000000
0.125000
0.000000
0.000000
0.000000
0.000000
0.000000
0.000000
0.000000
0.000000
0.000000
0.000000
0.000000
0.000000
0.000000
0.000000
0.000000
0.000000
0.000000
0.000000
0.000000
0.000000
0.000000
0.000000
0.000000
0.000000
0.000000
0.000000
0.000000
0.000000
0.000000
0.125000
0.000000
0.000000
0.000000
0.000000
0.000000
0.000000
0.000000
0.000000
0.000000
0.000000
0.000000
0.000000
0.000000
0.000000
0.000000
0.000000
0.000000
0.000000
0.000000
0.000000
0.000000
0.000000
0.000000
0.000000
0.000000
0.000000
0.000000
0.000000
0.000000
0.125000
0.000000
0.000000
0.000000
0.000000
0.000000
0.000000
0.000000
0.000000
0.000000
0.000000
0.000000
0.000000
0.000000
0.000000
0.000000
0.000000
0.000000
0.000000
0.000000
0.000000
0.000000
0.000000
0.000000
0.000000
0.000000
0.000000
0.000000
0.000000
0.000000
0.125000
0.000000
0.000000
0.000000
0.000000
0.000000
0.000000
0.000000
0.000000
0.000000
0.000000
0.000000
0.000000
0.000000
0.000000
0.000000
0.000000
0.000000
0.000000
0.000000
0.000000
0.000000
0.000000
0.000000
0.000000
0.000000
0.000000
0.000000
0.000000
0.000000
0.125000
0.000000
0.000000
0.000000
0.000000
0.000000
0.000000
0.000000
0.000000
0.000000
0.000000
0.000000
0.000000
0.000000
0.000000
0.000000
0.000000
0.000000
0.000000
0.000000
0.000000
0.000000
0.000000
0.000000
0.000000
0.000000
0.000000
0.000000
0.000000
0.000000
0.125000
0.000000
0.000000
0.000000
0.000000
0.000000
0.000000
0.000000
0.000000
0.000000
0.000000
0.000000
0.000000
0.000000
0.000000
0.000000
0.000000
0.000000
0.000000
0.000000
0.000000
0.000000
0.000000
0.000000
0.000000
0.000000
0.000000
0.000000
0.000000
0.000000
0.125000
0.000000
0.000000
0.000000
0.000000
0.000000
0.000000
0.000000
0.000000
0.000000
0.000000
0.000000
0.000000
0.000000
0.000000
0.000000
0.000000
0.000000
0.000000
0.000000
0.000000
0.000000
0.000000
0.000000
0.000000
0.000000
0.000000
0.000000
0.000000
0.000000
0.125000
0.000000
0.000000
0.000000
0.000000
0.000000
0.000000
0.000000
0.000000
0.000000
0.000000
0.000000
0.000000
0.000000
0.000000
0.000000
0.000000
0.000000
0.000000
0.000000
0.000000
0.000000
0.000000
0.000000
0.000000
0.000000
0.000000
0.000000
0.000000
0.000000
0.125000
0.000000
0.000000
0.000000
0.000000
0.000000
0.000000
0.000000
0.000000
0.000000
0.000000
0.000000
0.000000
0.000000
0.000000
0.000000
0.000000
0.000000
0.000000
0.000000
0.000000
0.000000
0.000000
0.000000
0.000000
0.000000
0.000000
0.000000
0.000000
0.000000
0.125000
0.065426
0.038472
0.027931
0.026457
0.025416
0.024355
0.023556
0.022921
0.022362
0.021729
0.021110
0.020501
0.020056
0.018600
0.017343
0.015942
0.013091
0.012441
0.011956
0.011457
0.010950
0.010495
0.010085
0.009674
0.009259
0.008845
0.008432
0.008095
0.000000
0.125000
0.069155
0.047996
0.036918
0.033181
0.031111
0.029524
0.028499
0.027612
0.026997
0.026483
0.026062
0.025711
0.025327
0.024224
0.021194
0.020168
0.017468
0.016254
0.015464
0.014864
0.014333
0.013878
0.013431
0.013003
0.012551
0.012078
0.011592
0.011174
0.000000
0.125000
0.069638
0.050215
0.038621
0.034162
0.032230
0.030688
0.029412
0.028591
0.028000
0.027602
0.027287
0.027042
0.026755
0.025974
0.023322
0.022350
0.019137
0.017356
0.016545
0.016053
0.015631
0.015216
0.014823
0.014414
0.014000
0.013557
0.013090
0.012676
0.000000
0.125000
0.069269
0.049693
0.038883
0.035600
0.033833
0.032091
0.030867
0.030027
0.029493
0.029064
0.028756
0.028507
0.028286
0.027914
0.025475
0.024935
0.021365
0.018990
0.018083
0.017588
0.017186
0.016814
0.016455
0.016076
0.015684
0.015272
0.014830
0.014423
0.000000
0.125000
0.069041
0.048918
0.038553
0.035845
0.034384
0.032929
0.031812
0.031025
0.030468
0.030051
0.029736
0.029457
0.029285
0.029316
0.027152
0.027038
0.023061
0.020192
0.019129
0.018612
0.018220
0.017847
0.017495
0.017127
0.016749
0.016348
0.015921
0.015519
0.000000
0.125000
0.069028
0.048617
0.038333
0.035850
0.034801
0.033648
0.032611
0.031890
0.031338
0.030928
0.030610
0.030296
0.030140
0.030472
0.028467
0.028651
0.024529
0.021312
0.020134
0.019605
0.019208
0.018825
0.018462
0.018097
0.017728
0.017336
0.016918
0.016514
0.000000
0.125000
0.068976
0.048389
0.038050
0.035653
0.034736
0.033696
0.032812
0.032127
0.031644
0.031249
0.030956
0.030684
0.030551
0.031112
0.029317
0.029710
0.025418
0.022001
0.020740
0.020161
0.019737
0.019315
0.018935
0.018547
0.018170
0.017776
0.017350
0.016940
0.000000
0.125000
0.068953
0.048390
0.038034
0.035670
0.034794
0.033824
0.032993
0.032410
0.031941
0.031588
0.031314
0.031047
0.030928
0.031579
0.029868
0.030393
0.026103
0.022617
0.021332
0.020746
0.020306
0.019873
0.019471
0.019087
0.018696
0.018303
0.017874
0.017463
0.000000
0.125000
0.068869
0.048312
0.037947
0.035512
0.034572
0.033577
0.032784
0.032245
0.031841
0.031531
0.031300
0.031079
0.030999
0.031680
0.030159
0.030596
0.026361
0.022881
0.021578
0.020934
0.020458
0.019985
0.019562
0.019135
0.018723
0.018309
0.017863
0.017434
0.000000
0.125000
0.068774
0.048335
0.037927
0.035411
0.034347
0.033217
0.032383
0.031833
0.031469
0.031197
0.031010
0.030877
0.030732
0.031388
0.030023
0.030327
0.026256
0.022917
0.021647
0.020950
0.020407
0.019913
0.019453
0.019019
0.018582
0.018156
0.017706
0.017272
0.000000
0.125000
0.068711
0.048328
0.037752
0.034998
0.033747
0.032453
0.031573
0.030943
0.030624
0.030405
0.030332
0.030319
0.030097
0.030789
0.029441
0.029566
0.025944
0.022734
0.021380
0.020558
0.019889
0.019317
0.018803
0.018331
0.017876
0.017433
0.016971
0.016528
0.000000
0.125000
0.068479
0.047837
0.037095
0.033890
0.032321
0.030868
0.029859
0.029198
0.028811
0.028623
0.028647
0.028694
0.028521
0.029368
0.028134
0.028151
0.024901
0.021891
0.020274
0.019272
0.018496
0.017865
0.017323
0.016823
0.016373
0.015927
0.015444
0.014989
0.000000
0.125000
0.068106
0.046859
0.035866
0.032311
0.030541
0.028943
0.027892
0.027116
0.026698
0.026513
0.026560
0.026652
0.026785
0.027761
0.026797
0.027257
0.023976
0.020971
0.019043
0.017782
0.016879
0.016199
0.015614
0.015126
0.014661
0.014218
0.013738
0.013272
0.000000
0.125000
0.066286
0.044006
0.032618
0.028019
0.025689
0.024039
0.023083
0.022372
0.021923
0.021517
0.021294
0.021031
0.021127
0.022018
0.023223
0.023668
0.019298
0.016400
0.014684
0.013475
0.012614
0.012002
0.011484
0.011016
0.010563
0.010130
0.009677
0.009239
0.000000
0.125000
0.047912
0.027136
0.018543
0.014693
0.012229
0.010253
0.009003
0.008238
0.007718
0.007354
0.007119
0.006970
0.006825
0.007694
0.010802
0.013038
0.009843
0.008014
0.006758
0.005805
0.005079
0.004557
0.004207
0.003933
0.003690
0.003495
0.003306
0.003106
0.000000
0.125000
0.067667
0.045603
0.031050
0.026924
0.025062
0.023647
0.022804
0.022193
0.021691
0.021130
0.020614
0.020041
0.019725
0.018619
0.019910
0.019965
0.016105
0.014093
0.013059
0.012271
0.011574
0.010960
0.010458
0.009999
0.009534
0.009083
0.008614
0.008196
0.000000
0.125000
0.069199
0.052019
0.040700
0.036308
0.033856
0.031951
0.030783
0.029924
0.029396
0.028936
0.028669
0.028443
0.027965
0.027556
0.025721
0.025570
0.023141
0.021030
0.019650
0.018563
0.017683
0.017040
0.016452
0.015923
0.015379
0.014829
0.014266
0.013747
0.000000
0.125000
0.068411
0.051556
0.041454
0.037605
0.035587
0.033895
0.032669
0.031768
0.031190
0.030806
0.030633
0.030462
0.029815
0.029562
0.027946
0.027229
0.024300
0.022115
0.020947
0.020189
0.019593
0.019036
0.018499
0.017974
0.017443
0.016918
0.016361
0.015842
0.000000
0.125000
0.068006
0.050291
0.041080
0.038622
0.037234
0.035721
0.034558
0.033722
0.033176
0.032781
0.032530
0.032328
0.031849
0.031878
0.030191
0.029775
0.026284
0.023608
0.022645
0.022128
0.021671
0.021216
0.020759
0.020276
0.019783
0.019281
0.018748
0.018246
0.000000
0.125000
0.067876
0.049223
0.040176
0.038301
0.037414
0.036295
0.035403
0.034662
0.034141
0.033710
0.033391
0.033137
0.032921
0.033280
0.031638
0.031607
0.027388
0.024267
0.023284
0.022886
0.022570
0.022235
0.021856
0.021431
0.020972
0.020493
0.019982
0.019491
0.000000
0.125000
0.067892
0.048776
0.039674
0.038002
0.037489
0.036700
0.035954
0.035343
0.034836
0.034399
0.034066
0.033785
0.033669
0.034303
0.032537
0.032813
0.028348
0.024900
0.023804
0.023446
0.023203
0.022914
0.022572
0.022184
0.021746
0.021283
0.020779
0.020286
0.000000
0.125000
0.067887
0.048606
0.039452
0.037845
0.037475
0.036779
0.036124
0.035522
0.035043
0.034599
0.034276
0.033999
0.033895
0.034677
0.032902
0.033355
0.028760
0.025178
0.024043
0.023705
0.023486
0.023205
0.022879
0.022507
0.022086
0.021633
0.021133
0.020640
0.000000
0.125000
0.067854
0.048607
0.039440
0.037808
0.037388
0.036631
0.035930
0.035335
0.034831
0.034409
0.034113
0.033861
0.033764
0.034572
0.032866
0.033284
0.028716
0.025141
0.024000
0.023625
0.023358
0.023045
0.022691
0.022296
0.021858
0.021398
0.020892
0.020395
0.000000
0.125000
0.067858
0.048954
0.039873
0.038111
0.037467
0.036459
0.035594
0.034949
0.034461
0.034046
0.033768
0.033538
0.033409
0.034073
0.032406
0.032677
0.028383
0.025016
0.023921
0.023505
0.023175
0.022806
0.022409
0.021993
0.021536
0.021060
0.020552
0.020055
0.000000
0.125000
0.067872
0.049492
0.040316
0.038050
0.036894
0.035585
0.034548
0.033774
0.033307
0.032947
0.032740
0.032588
0.032395
0.032856
0.031426
0.031410
0.027432
0.024372
0.023268
0.022692
0.022239
0.021774
0.021302
0.020829
0.020343
0.019843
0.019321
0.018824
0.000000
0.125000
0.068001
0.050834
0.041563
0.038215
0.035962
0.034268
0.033144
0.032356
0.031856
0.031556
0.031441
0.031349
0.031064
0.031329
0.029955
0.029555
0.026381
0.023735
0.022636
0.021780
0.021094
0.020526
0.020006
0.019485
0.018978
0.018477
0.017934
0.017426
0.000000
0.125000
0.068081
0.051335
0.039743
0.035577
0.033296
0.031433
0.030186
0.029465
0.028950
0.028707
0.028576
0.028576
0.028397
0.028734
0.027657
0.027228
0.024663
0.021599
0.020095
0.019154
0.018390
0.017693
0.017122
0.016602
0.016082
0.015573
0.015019
0.014493
0.000000
0.125000
0.069020
0.051619
0.037294
0.031646
0.029736
0.028197
0.027116
0.026162
0.025791
0.025378
0.025193
0.025166
0.025168
0.025561
0.025048
0.025242
0.023917
0.020375
0.017914
0.016547
0.015659
0.014993
0.014392
0.013898
0.013410
0.012901
0.012369
0.011866
0.000000
0.125000
0.047386
0.022824
0.017572
0.016999
0.015505
0.014548
0.014042
0.013797
0.013430
0.013114
0.012747
0.012453
0.012353
0.012387
0.013098
0.014839
0.010298
0.008934
0.008357
0.007646
0.007090
0.006705
0.006438
0.006162
0.005865
0.005587
0.005284
0.004997
0.000000
0.125000
0.000000
0.000000
0.000000
0.000000
0.000000
0.000000
0.000000
0.000000
0.000000
0.000000
0.000000
0.000000
0.000000
0.000000
0.000000
0.000000
0.000000
0.000000
0.000000
0.000000
0.000000
0.000000
0.000000
0.000000
0.000000
0.000000
0.000000
0.000000
0.000000
0.125000
0.069154
0.047996
0.036917
0.033195
0.031084
0.029548
0.028398
0.027568
0.027017
0.026412
0.026048
0.025718
0.025339
0.024189
0.021069
0.020010
0.017467
0.016229
0.015489
0.014860
0.014338
0.013865
0.013433
0.013009
0.012561
0.012081
0.011592
0.011170
0.000000
0.125000
0.081051
0.071141
0.058687
0.051014
0.046186
0.043354
0.041854
0.040542
0.039813
0.039293
0.039167
0.039131
0.038439
0.036247
0.024032
0.028829
0.026725
0.025449
0.024429
0.023518
0.022858
0.022338
0.021799
0.021271
0.020675
0.020032
0.019409
0.018926
0.000000
0.125000
0.084064
0.079391
0.069322
0.061221
0.055611
0.052271
0.050089
0.048685
0.047794
0.047321
0.047268
0.047147
0.046141
0.043175
0.024241
0.034935
0.032616
0.031467
0.030589
0.029755
0.029152
0.028621
0.028100
0.027527
0.026907
0.026258
0.025635
0.025164
0.000000
0.125000
0.083218
0.079011
0.071516
0.065339
0.060171
0.056561
0.054415
0.052978
0.052142
0.051603
0.051453
0.051221
0.050244
0.047487
0.024559
0.039286
0.036644
0.035325
0.034417
0.033602
0.033011
0.032517
0.032022
0.031472
0.030865
0.030251
0.029668
0.029212
0.000000
0.125000
0.082762
0.078391
0.071992
0.067030
0.062702
0.059646
0.057717
0.056348
0.055447
0.054843
0.054585
0.054241
0.053365
0.050873
0.025083
0.042884
0.040069
0.038594
0.037547
0.036717
0.036161
0.035696
0.035211
0.034677
0.034101
0.033520
0.032968
0.032525
0.000000
0.125000
0.082661
0.077904
0.071455
0.066983
0.063411
0.060958
0.059306
0.058059
0.057172
0.056613
0.056394
0.056066
0.055377
0.053203
0.025731
0.045495
0.042623
0.040961
0.039696
0.038751
0.038145
0.037657
0.037120
0.036565
0.035993
0.035425
0.034876
0.034428
0.000000
0.125000
0.082675
0.077726
0.071241
0.067013
0.063762
0.061604
0.060263
0.059117
0.058357
0.057838
0.057647
0.057333
0.056741
0.054745
0.026118
0.047313
0.044428
0.042786
0.041469
0.040451
0.039803
0.039301
0.038760
0.038198
0.037634
0.037075
0.036534
0.036084
0.000000
0.125000
0.082519
0.077359
0.070737
0.066482
0.063321
0.061308
0.060091
0.059130
0.058462
0.058066
0.057982
0.057794
0.057376
0.055591
0.026538
0.048379
0.045444
0.043762
0.042384
0.041309
0.040576
0.039995
0.039365
0.038765
0.038144
0.037550
0.036984
0.036523
0.000000
0.125000
0.082466
0.077392
0.070706
0.066366
0.063143
0.061125
0.059983
0.059138
0.058583
0.058265
0.058248
0.058119
0.057747
0.055963
0.026882
0.048885
0.046129
0.044606
0.043310
0.042248
0.041501
0.040867
0.040218
0.039587
0.038944
0.038337
0.037761
0.037298
0.000000
0.125000
0.082298
0.077107
0.070166
0.065447
0.061869
0.059578
0.058344
0.057505
0.057055
0.056876
0.057047
0.057157
0.056881
0.055274
0.026835
0.048395
0.045744
0.044368
0.043069
0.041857
0.040915
0.040155
0.039401
0.038708
0.038001
0.037352
0.036769
0.036284
0.000000
0.125000
0.082244
0.076781
0.069221
0.063887
0.059798
0.057150
0.055761
0.054796
0.054440
0.054434
0.054867
0.055195
0.055021
0.053667
0.026426
0.047109
0.044923
0.043622
0.042141
0.040678
0.039519
0.038626
0.037817
0.037079
0.036371
0.035711
0.035108
0.034625
0.000000
0.125000
0.081825
0.075565
0.067040
0.060645
0.055745
0.052690
0.051018
0.050024
0.049641
0.049805
0.050590
0.051307
0.051614
0.050750
0.025280
0.044927
0.043150
0.041621
0.039470
0.037526
0.036102
0.035079
0.034229
0.033446
0.032737
0.032074
0.031453
0.030953
0.000000
0.125000
0.080401
0.071624
0.061238
0.053804
0.048424
0.045136
0.043393
0.042260
0.041826
0.042016
0.042850
0.043903
0.045299
0.045707
0.024248
0.042024
0.039642
0.037002
0.033996
0.031715
0.030224
0.029232
0.028409