# vtk DataFile Version 3.0
LBM Simulation Data (speed_m_per_s) [FIXED_SCALING_v11]
ASCII
DATASET STRUCTURED_GRID
DIMENSIONS 30 30 30
POINTS 27000 float
0 0 0
1 0 0
2 0 0
3 0 0
4 0 0
5 0 0
6 0 0
7 0 0
8 0 0
9 0 0
10 0 0
11 0 0
12 0 0
13 0 0
14 0 0
15 0 0
16 0 0
17 0 0
18 0 0
19 0 0
20 0 0
21 0 0
22 0 0
23 0 0
24 0 0
25 0 0
26 0 0
27 0 0
28 0 0
29 0 0
0 1 0
1 1 0
2 1 0
3 1 0
4 1 0
5 1 0
6 1 0
7 1 0
8 1 0
9 1 0
10 1 0
11 1 0
12 1 0
13 1 0
14 1 0
15 1 0
16 1 0
17 1 0
18 1 0
19 1 0
20 1 0
21 1 0
22 1 0
23 1 0
24 1 0
25 1 0
26 1 0
27 1 0
28 1 0
29 1 0
0 2 0
1 2 0
2 2 0
3 2 0
4 2 0
5 2 0
6 2 0
7 2 0
8 2 0
9 2 0
10 2 0
11 2 0
12 2 0
13 2 0
14 2 0
15 2 0
16 2 0
17 2 0
18 2 0
19 2 0
20 2 0
21 2 0
22 2 0
23 2 0
24 2 0
25 2 0
26 2 0
27 2 0
28 2 0
29 2 0
0 3 0
1 3 0
2 3 0
3 3 0
4 3 0
5 3 0
6 3 0
7 3 0
8 3 0
9 3 0
10 3 0
11 3 0
12 3 0
13 3 0
14 3 0
15 3 0
16 3 0
17 3 0
18 3 0
19 3 0
20 3 0
21 3 0
22 3 0
23 3 0
24 3 0
25 3 0
26 3 0
27 3 0
28 3 0
29 3 0
0 4 0
1 4 0
2 4 0
3 4 0
4 4 0
5 4 0
6 4 0
7 4 0
8 4 0
9 4 0
10 4 0
11 4 0
12 4 0
13 4 0
14 4 0
15 4 0
16 4 0
17 4 0
18 4 0
19 4 0
20 4 0
21 4 0
22 4 0
23 4 0
24 4 0
25 4 0
26 4 0
27 4 0
28 4 0
29 4 0
0 5 0
1 5 0
2 5 0
3 5 0
4 5 0
5 5 0
6 5 0
7 5 0
8 5 0
9 5 0
10 5 0
11 5 0
12 5 0
13 5 0
14 5 0
15 5 0
16 5 0
17 5 0
18 5 0
19 5 0
20 5 0
21 5 0
22 5 0
23 5 0
24 5 0
25 5 0
26 5 0
27 5 0
28 5 0
29 5 0
0 6 0
1 6 0
2 6 0
3 6 0
4 6 0
5 6 0
6 6 0
7 6 0
8 6 0
9 6 0
10 6 0
11 6 0
12 6 0
13 6 0
14 6 0
15 6 0
16 6 0
17 6 0
18 6 0
19 6 0
20 6 0
21 6 0
22 6 0
23 6 0
24 6 0
25 6 0
26 6 0
27 6 0
28 6 0
29 6 0
0 7 0
1 7 0
2 7 0
3 7 0
4 7 0
5 7 0
6 7 0
7 7 0
8 7 0
9 7 0
10 7 0
11 7 0
12 7 0
13 7 0
14 7 0
15 7 0
16 7 0
17 7 0
18 7 0
19 7 0
20 7 0
21 7 0
22 7 0
23 7 0
24 7 0
25 7 0
26 7 0
27 7 0
28 7 0
29 7 0
0 8 0
1 8 0
2 8 0
3 8 0
4 8 0
5 8 0
6 8 0
7 8 0
8 8 0
9 8 0
10 8 0
11 8 0
12 8 0
13 8 0
14 8 0
15 8 0
16 8 0
17 8 0
18 8 0
19 8 0
20 8 0
21 8 0
22 8 0
23 8 0
24 8 0
25 8 0
26 8 0
27 8 0
28 8 0
29 8 0
0 9 0
1 9 0
2 9 0
3 9 0
4 9 0
5 9 0
6 9 0
7 9 0
8 9 0
9 9 0
10 9 0
11 9 0
12 9 0
13 9 0
14 9 0
15 9 0
16 9 0
17 9 0
18 9 0
19 9 0
20 9 0
21 9 0
22 9 0
23 9 0
24 9 0
25 9 0
26 9 0
27 9 0
28 9 0
29 9 0
0 10 0
1 10 0
2 10 0
3 10 0
4 10 0
5 10 0
6 10 0
7 10 0
8 10 0
9 10 0
10 10 0
11 10 0
12 10 0
13 10 0
14 10 0
15 10 0
16 10 0
17 10 0
18 10 0
19 10 0
20 10 0
21 10 0
22 10 0
23 10 0
24 10 0
25 10 0
26 10 0
27 10 0
28 10 0
29 10 0
0 11 0
1 11 0
2 11 0
3 11 0
4 11 0
5 11 0
6 11 0
7 11 0
8 11 0
9 11 0
10 11 0
11 11 0
12 11 0
13 11 0
14 11 0
15 11 0
16 11 0
17 11 0
18 11 0
19 11 0
20 11 0
21 11 0
22 11 0
23 11 0
24 11 0
25 11 0
26 11 0
27 11 0
28 11 0
29 11 0
0 12 0
1 12 0
2 12 0
3 12 0
4 12 0
5 12 0
6 12 0
7 12 0
8 12 0
9 12 0
10 12 0
11 12 0
12 12 0
13 12 0
14 12 0
15 12 0
16 12 0
17 12 0
18 12 0
19 12 0
20 12 0
21 12 0
22 12 0
23 12 0
24 12 0
25 12 0
26 12 0
27 12 0
28 12 0
29 12 0
0 13 0
1 13 0
2 13 0
3 13 0
4 13 0
5 13 0
6 13 0
7 13 0
8 13 0
9 13 0
10 13 0
11 13 0
12 13 0
13 13 0
14 13 0
15 13 0
16 13 0
17 13 0
18 13 0
19 13 0
20 13 0
21 13 0
22 13 0
23 13 0
24 13 0
25 13 0
26 13 0
27 13 0
28 13 0
29 13 0
0 14 0
1 14 0
2 14 0
3 14 0
4 14 0
5 14 0
6 14 0
7 14 0
8 14 0
9 14 0
10 14 0
11 14 0
12 14 0
13 14 0
14 14 0
15 14 0
16 14 0
17 14 0
18 14 0
19 14 0
20 14 0
21 14 0
22 14 0
23 14 0
24 14 0
25 14 0
26 14 0
27 14 0
28 14 0
29 14 0
0 15 0
1 15 0
2 15 0
3 15 0
4 15 0
5 15 0
6 15 0
7 15 0
8 15 0
9 15 0
10 15 0
11 15 0
12 15 0
13 15 0
14 15 0
15 15 0
16 15 0
17 15 0
18 15 0
19 15 0
20 15 0
21 15 0
22 15 0
23 15 0
24 15 0
25 15 0
26 15 0
27 15 0
28 15 0
29 15 0
0 16 0
1 16 0
2 16 0
3 16 0
4 16 0
5 16 0
6 16 0
7 16 0
8 16 0
9 16 0
10 16 0
11 16 0
12 16 0
13 16 0
14 16 0
15 16 0
16 16 0
17 16 0
18 16 0
19 16 0
20 16 0
21 16 0
22 16 0
23 16 0
24 16 0
25 16 0
26 16 0
27 16 0
28 16 0
29 16 0
0 17 0
1 17 0
2 17 0
3 17 0
4 17 0
5 17 0
6 17 0
7 17 0
8 17 0
9 17 0
10 17 0
11 17 0
12 17 0
13 17 0
14 17 0
15 17 0
16 17 0
17 17 0
18 17 0
19 17 0
20 17 0
21 17 0
22 17 0
23 17 0
24 17 0
25 17 0
26 17 0
27 17 0
28 17 0
29 17 0
0 18 0
1 18 0
2 18 0
3 18 0
4 18 0
5 18 0
6 18 0
7 18 0
8 18 0
9 18 0
10 18 0
11 18 0
12 18 0
13 18 0
14 18 0
15 18 0
16 18 0
17 18 0
18 18 0
19 18 0
20 18 0
21 18 0
22 18 0
23 18 0
24 18 0
25 18 0
26 18 0
27 18 0
28 18 0
29 18 0
0 19 0
1 19 0
2 19 0
3 19 0
4 19 0
5 19 0
6 19 0
7 19 0
8 19 0
9 19 0
10 19 0
11 19 0
12 19 0
13 19 0
14 19 0
15 19 0
16 19 0
17 19 0
18 19 0
19 19 0
20 19 0
21 19 0
22 19 0
23 19 0
24 19 0
25 19 0
26 19 0
27 19 0
28 19 0
29 19 0
0 20 0
1 20 0
2 20 0
3 20 0
4 20 0
5 20 0
6 20 0
7 20 0
8 20 0
9 20 0
10 20 0
11 20 0
12 20 0
13 20 0
14 20 0
15 20 0
16 20 0
17 20 0
18 20 0
19 20 0
20 20 0
21 20 0
22 20 0
23 20 0
24 20 0
25 20 0
26 20 0
27 20 0
28 20 0
29 20 0
0 21 0
1 21 0
2 21 0
3 21 0
4 21 0
5 21 0
6 21 0
7 21 0
8 21 0
9 21 0
10 21 0
11 21 0
12 21 0
13 21 0
14 21 0
15 21 0
16 21 0
17 21 0
18 21 0
19 21 0
20 21 0
21 21 0
22 21 0
23 21 0
24 21 0
25 21 0
26 21 0
27 21 0
28 21 0
29 21 0
0 22 0
1 22 0
2 22 0
3 22 0
4 22 0
5 22 0
6 22 0
7 22 0
8 22 0
9 22 0
10 22 0
11 22 0
12 22 0
13 22 0
14 22 0
15 22 0
16 22 0
17 22 0
18 22 0
19 22 0
20 22 0
21 22 0
22 22 0
23 22 0
24 22 0
25 22 0
26 22 0
27 22 0
28 22 0
29 22 0
0 23 0
1 23 0
2 23 0
3 23 0
4 23 0
5 23 0
6 23 0
7 23 0
8 23 0
9 23 0
10 23 0
11 23 0
12 23 0
13 23 0
14 23 0
15 23 0
16 23 0
17 23 0
18 23 0
19 23 0
20 23 0
21 23 0
22 23 0
23 23 0
24 23 0
25 23 0
26 23 0
27 23 0
28 23 0
29 23 0
0 24 0
1 24 0
2 24 0
3 24 0
4 24 0
5 24 0
6 24 0
7 24 0
8 24 0
9 24 0
10 24 0
11 24 0
12 24 0
13 24 0
14 24 0
15 24 0
16 24 0
17 24 0
18 24 0
19 24 0
20 24 0
21 24 0
22 24 0
23 24 0
24 24 0
25 24 0
26 24 0
27 24 0
28 24 0
29 24 0
0 25 0
1 25 0
2 25 0
3 25 0
4 25 0
5 25 0
6 25 0
7 25 0
8 25 0
9 25 0
10 25 0
11 25 0
12 25 0
13 25 0
14 25 0
15 25 0
16 25 0
17 25 0
18 25 0
19 25 0
20 25 0
21 25 0
22 25 0
23 25 0
24 25 0
25 25 0
26 25 0
27 25 0
28 25 0
29 25 0
0 26 0
1 26 0
2 26 0
3 26 0
4 26 0
5 26 0
6 26 0
7 26 0
8 26 0
9 26 0
10 26 0
11 26 0
12 26 0
13 26 0
14 26 0
15 26 0
16 26 0
17 26 0
18 26 0
19 26 0
20 26 0
21 26 0
22 26 0
23 26 0
24 26 0
25 26 0
26 26 0
27 26 0
28 26 0
29 26 0
0 27 0
1 27 0
2 27 0
3 27 0
4 27 0
5 27 0
6 27 0
7 27 0
8 27 0
9 27 0
10 27 0
11 27 0
12 27 0
13 27 0
14 27 0
15 27 0
16 27 0
17 27 0
18 27 0
19 27 0
20 27 0
21 27 0
22 27 0
23 27 0
24 27 0
25 27 0
26 27 0
27 27 0
28 27 0
29 27 0
0 28 0
1 28 0
2 28 0
3 28 0
4 28 0
5 28 0
6 28 0
7 28 0
8 28 0
9 28 0
10 28 0
11 28 0
12 28 0
13 28 0
14 28 0
15 28 0
16 28 0
17 28 0
18 28 0
19 28 0
20 28 0
21 28 0
22 28 0
23 28 0
24 28 0
25 28 0
26 28 0
27 28 0
28 28 0
29 28 0
0 29 0
1 29 0
2 29 0
3 29 0
4 29 0
5 29 0
6 29 0
7 29 0
8 29 0
9 29 0
10 29 0
11 29 0
12 29 0
13 29 0
14 29 0
15 29 0
16 29 0
17 29 0
18 29 0
19 29 0
20 29 0
21 29 0
22 29 0
23 29 0
24 29 0
25 29 0
26 29 0
27 29 0
28 29 0
29 29 0
0 0 1
1 0 1
2 0 1
3 0 1
4 0 1
5 0 1
6 0 1
7 0 1
8 0 1
9 0 1
10 0 1
11 0 1
12 0 1
13 0 1
14 0 1
15 0 1
16 0 1
17 0 1
18 0 1
19 0 1
20 0 1
21 0 1
22 0 1
23 0 1
24 0 1
25 0 1
26 0 1
27 0 1
28 0 1
29 0 1
0 1 1
1 1 1
2 1 1
3 1 1
4 1 1
5 1 1
6 1 1
7 1 1
8 1 1
9 1 1
10 1 1
11 1 1
12 1 1
13 1 1
14 1 1
15 1 1
16 1 1
17 1 1
18 1 1
19 1 1
20 1 1
21 1 1
22 1 1
23 1 1
24 1 1
25 1 1
26 1 1
27 1 1
28 1 1
29 1 1
0 2 1
1 2 1
2 2 1
3 2 1
4 2 1
5 2 1
6 2 1
7 2 1
8 2 1
9 2 1
10 2 1
11 2 1
12 2 1
13 2 1
14 2 1
15 2 1
16 2 1
17 2 1
18 2 1
19 2 1
20 2 1
21 2 1
22 2 1
23 2 1
24 2 1
25 2 1
26 2 1
27 2 1
28 2 1
29 2 1
0 3 1
1 3 1
2 3 1
3 3 1
4 3 1
5 3 1
6 3 1
7 3 1
8 3 1
9 3 1
10 3 1
11 3 1
12 3 1
13 3 1
14 3 1
15 3 1
16 3 1
17 3 1
18 3 1
19 3 1
20 3 1
21 3 1
22 3 1
23 3 1
24 3 1
25 3 1
26 3 1
27 3 1
28 3 1
29 3 1
0 4 1
1 4 1
2 4 1
3 4 1
4 4 1
5 4 1
6 4 1
7 4 1
8 4 1
9 4 1
10 4 1
11 4 1
12 4 1
13 4 1
14 4 1
15 4 1
16 4 1
17 4 1
18 4 1
19 4 1
20 4 1
21 4 1
22 4 1
23 4 1
24 4 1
25 4 1
26 4 1
27 4 1
28 4 1
29 4 1
0 5 1
1 5 1
2 5 1
3 5 1
4 5 1
5 5 1
6 5 1
7 5 1
8 5 1
9 5 1
10 5 1
11 5 1
12 5 1
13 5 1
14 5 1
15 5 1
16 5 1
17 5 1
18 5 1
19 5 1
20 5 1
21 5 1
22 5 1
23 5 1
24 5 1
25 5 1
26 5 1
27 5 1
28 5 1
29 5 1
0 6 1
1 6 1
2 6 1
3 6 1
4 6 1
5 6 1
6 6 1
7 6 1
8 6 1
9 6 1
10 6 1
11 6 1
12 6 1
13 6 1
14 6 1
15 6 1
16 6 1
17 6 1
18 6 1
19 6 1
20 6 1
21 6 1
22 6 1
23 6 1
24 6 1
25 6 1
26 6 1
27 6 1
28 6 1
29 6 1
0 7 1
1 7 1
2 7 1
3 7 1
4 7 1
5 7 1
6 7 1
7 7 1
8 7 1
9 7 1
10 7 1
11 7 1
12 7 1
13 7 1
14 7 1
15 7 1
16 7 1
17 7 1
18 7 1
19 7 1
20 7 1
21 7 1
22 7 1
23 7 1
24 7 1
25 7 1
26 7 1
27 7 1
28 7 1
29 7 1
0 8 1
1 8 1
2 8 1
3 8 1
4 8 1
5 8 1
6 8 1
7 8 1
8 8 1
9 8 1
10 8 1
11 8 1
12 8 1
13 8 1
14 8 1
15 8 1
16 8 1
17 8 1
18 8 1
19 8 1
20 8 1
21 8 1
22 8 1
23 8 1
24 8 1
25 8 1
26 8 1
27 8 1
28 8 1
29 8 1
0 9 1
1 9 1
2 9 1
3 9 1
4 9 1
5 9 1
6 9 1
7 9 1
8 9 1
9 9 1
10 9 1
11 9 1
12 9 1
13 9 1
14 9 1
15 9 1
16 9 1
17 9 1
18 9 1
19 9 1
20 9 1
21 9 1
22 9 1
23 9 1
24 9 1
25 9 1
26 9 1
27 9 1
28 9 1
29 9 1
0 10 1
1 10 1
2 10 1
3 10 1
4 10 1
5 10 1
6 10 1
7 10 1
8 10 1
9 10 1
10 10 1
11 10 1
12 10 1
13 10 1
14 10 1
15 10 1
16 10 1
17 10 1
18 10 1
19 10 1
20 10 1
21 10 1
22 10 1
23 10 1
24 10 1
25 10 1
26 10 1
27 10 1
28 10 1
29 10 1
0 11 1
1 11 1
2 11 1
3 11 1
4 11 1
5 11 1
6 11 1
7 11 1
8 11 1
9 11 1
10 11 1
11 11 1
12 11 1
13 11 1
14 11 1
15 11 1
16 11 1
17 11 1
18 11 1
19 11 1
20 11 1
21 11 1
22 11 1
23 11 1
24 11 1
25 11 1
26 11 1
27 11 1
28 11 1
29 11 1
0 12 1
1 12 1
2 12 1
3 12 1
4 12 1
5 12 1
6 12 1
7 12 1
8 12 1
9 12 1
10 12 1
11 12 1
12 12 1
13 12 1
14 12 1
15 12 1
16 12 1
17 12 1
18 12 1
19 12 1
20 12 1
21 12 1
22 12 1
23 12 1
24 12 1
25 12 1
26 12 1
27 12 1
28 12 1
29 12 1
0 13 1
1 13 1
2 13 1
3 13 1
4 13 1
5 13 1
6 13 1
7 13 1
8 13 1
9 13 1
10 13 1
11 13 1
12 13 1
13 13 1
14 13 1
15 13 1
16 13 1
17 13 1
18 13 1
19 13 1
20 13 1
21 13 1
22 13 1
23 13 1
24 13 1
25 13 1
26 13 1
27 13 1
28 13 1
29 13 1
0 14 1
1 14 1
2 14 1
3 14 1
4 14 1
5 14 1
6 14 1
7 14 1
8 14 1
9 14 1
10 14 1
11 14 1
12 14 1
13 14 1
14 14 1
15 14 1
16 14 1
17 14 1
18 14 1
19 14 1
20 14 1
21 14 1
22 14 1
23 14 1
24 14 1
25 14 1
26 14 1
27 14 1
28 14 1
29 14 1
0 15 1
1 15 1
2 15 1
3 15 1
4 15 1
5 15 1
6 15 1
7 15 1
8 15 1
9 15 1
10 15 1
11 15 1
12 15 1
[...]
POINT_DATA 27000
SCALARS speed_m_per_s float 1
LOOKUP_TABLE default
0.125000
0.000000
0.000000
0.000000
0.000000
0.000000
0.000000
0.000000
0.000000
0.000000
0.000000
0.000000
0.000000
0.000000
0.000000
0.000000
0.000000
0.000000
0.000000
0.000000
0.000000
0.000000
0.000000
0.000000
0.000000
0.000000
0.000000
0.000000
0.000000
0.000000
0.125000
0.000000
0.000000
0.000000
0.000000
0.000000
0.000000
0.000000
0.000000
0.000000
0.000000
0.000000
0.000000
0.000000
0.000000
0.000000
0.000000
0.000000
0.000000
0.000000
0.000000
0.000000
0.000000
0.000000
0.000000
0.000000
0.000000
0.000000
0.000000
0.000000
0.125000
0.000000
0.000000
0.000000
0.000000
0.000000
0.000000
0.000000
0.000000
0.000000
0.000000
0.000000
0.000000
0.000000
0.000000
0.000000
0.000000
0.000000
0.000000
0.000000
0.000000
0.000000
0.000000
0.000000
0.000000
0.000000
0.000000
0.000000
0.000000
0.000000
0.125000
0.000000
0.000000
0.000000
0.000000
0.000000
0.000000
0.000000
0.000000
0.000000
0.000000
0.000000
0.000000
0.000000
0.000000
0.000000
0.000000
0.000000
0.000000
0.000000
0.000000
0.000000
0.000000
0.000000
0.000000
0.000000
0.000000
0.000000
0.000000
0.000000
0.125000
0.000000
0.000000
0.000000
0.000000
0.000000
0.000000
0.000000
0.000000
0.000000
0.000000
0.000000
0.000000
0.000000
0.000000
0.000000
0.000000
0.000000
0.000000
0.000000
0.000000
0.000000
0.000000
0.000000
0.000000
0.000000
0.000000
0.000000
0.000000
0.000000
0.125000
0.000000
0.000000
0.000000
0.000000
0.000000
0.000000
0.000000
0.000000
0.000000
0.000000
0.000000
0.000000
0.000000
0.000000
0.000000
0.000000
0.000000
0.000000
0.000000
0.000000
0.000000
0.000000
0.000000
0.000000
0.000000
0.000000
0.000000
0.000000
0.000000
0.125000
0.000000
0.000000
0.000000
0.000000
0.000000
0.000000
0.000000
0.000000
0.000000
0.000000
0.000000
0.000000
0.000000
0.000000
0.000000
0.000000
0.000000
0.000000
0.000000
0.000000
0.000000
0.000000
0.000000
0.000000
0.000000
0.000000
0.000000
0.000000
0.000000
0.125000
0.000000
0.000000
0.000000
0.000000
0.000000
0.000000
0.000000
0.000000
0.000000
0.000000
0.000000
0.000000
0.000000
0.000000
0.000000
0.000000
0.000000
0.000000
0.000000
0.000000
0.000000
0.000000
0.000000
0.000000
0.000000
0.000000
0.000000
0.000000
0.000000
0.125000
0.000000
0.000000
0.000000
0.000000
0.000000
0.000000
0.000000
0.000000
0.000000
0.000000
0.000000
0.000000
0.000000
0.000000
0.000000
0.000000
0.000000
0.000000
0.000000
0.000000
0.000000
0.000000
0.000000
0.000000
0.000000
0.000000
0.000000
0.000000
0.000000
0.125000
0.000000
0.000000
0.000000
0.000000
0.000000
0.000000
0.000000
0.000000
0.000000
0.000000
0.000000
0.000000
0.000000
0.000000
0.000000
0.000000
0.000000
0.000000
0.000000
0.000000
0.000000
0.000000
0.000000
0.000000
0.000000
0.000000
0.000000
0.000000
0.000000
0.125000
0.000000
0.000000
0.000000
0.000000
0.000000
0.000000
0.000000
0.000000
0.000000
0.000000
0.000000
0.000000
0.000000
0.000000
0.000000
0.000000
0.000000
0.000000
0.000000
0.000000
0.000000
0.000000
0.000000
0.000000
0.000000
0.000000
0.000000
0.000000
0.000000
0.125000
0.000000
0.000000
0.000000
0.000000
0.000000
0.000000
0.000000
0.000000
0.000000
0.000000
0.000000
0.000000
0.000000
0.000000
0.000000
0.000000
0.000000
0.000000
0.000000
0.000000
0.000000
0.000000
0.000000
0.000000
0.000000
0.000000
0.000000
0.000000
0.000000
0.125000
0.000000
0.000000
0.000000
0.000000
0.000000
0.000000
0.000000
0.000000
0.000000
0.000000
0.000000
0.000000
0.000000
0.000000
0.000000
0.000000
0.000000
0.000000
0.000000
0.000000
0.000000
0.000000
0.000000
0.000000
0.000000
0.000000
0.000000
0.000000
0.000000
0.125000
0.000000
0.000000
0.000000
0.000000
0.000000
0.000000
0.000000
0.000000
0.000000
0.000000
0.000000
0.000000
0.000000
0.000000
0.000000
0.000000
0.000000
0.000000
0.000000
0.000000
0.000000
0.000000
0.000000
0.000000
0.000000
0.000000
0.000000
0.000000
0.000000
0.125000
0.000000
0.000000
0.000000
0.000000
0.000000
0.000000
0.000000
0.000000
0.000000
0.000000
0.000000
0.000000
0.000000
0.000000
0.000000
0.000000
0.000000
0.000000
0.000000
0.000000
0.000000
0.000000
0.000000
0.000000
0.000000
0.000000
0.000000
0.000000
0.000000
0.125000
0.000000
0.000000
0.000000
0.000000
0.000000
0.000000
0.000000
0.000000
0.000000
0.000000
0.000000
0.000000
0.000000
0.000000
0.000000
0.000000
0.000000
0.000000
0.000000
0.000000
0.000000
0.000000
0.000000
0.000000
0.000000
0.000000
0.000000
0.000000
0.000000
0.125000
0.000000
0.000000
0.000000
0.000000
0.000000
0.000000
0.000000
0.000000
0.000000
0.000000
0.000000
0.000000
0.000000
0.000000
0.000000
0.000000
0.000000
0.000000
0.000000
0.000000
0.000000
0.000000
0.000000
0.000000
0.000000
0.000000
0.000000
0.000000
0.000000
0.125000
0.000000
0.000000
0.000000
0.000000
0.000000
0.000000
0.000000
0.000000
0.000000
0.000000
0.000000
0.000000
0.000000
0.000000
0.000000
0.000000
0.000000
0.000000
0.000000
0.000000
0.000000
0.000000
0.000000
0.000000
0.000000
0.000000
0.000000
0.000000
0.000000
0.125000
0.000000
0.000000
0.000000
0.000000
0.000000
0.000000
0.000000
0.000000
0.000000
0.000000
0.000000
0.000000
0.000000
0.000000
0.000000
0.000000
0.000000
0.000000
0.000000
0.000000
0.000000
0.000000
0.000000
0.000000
0.000000
0.000000
0.000000
0.000000
0.000000
0.125000
0.000000
0.000000
0.000000
0.000000
0.000000
0.000000
0.000000
0.000000
0.000000
0.000000
0.000000
0.000000
0.000000
0.000000
0.000000
0.000000
0.000000
0.000000
0.000000
0.000000
0.000000
0.000000
0.000000
0.000000
0.000000
0.000000
0.000000
0.000000
0.000000
0.125000
0.000000
0.000000
0.000000
0.000000
0.000000
0.000000
0.000000
0.000000
0.000000
0.000000
0.000000
0.000000
0.000000
0.000000
0.000000
0.000000
0.000000
0.000000
0.000000
0.000000
0.000000
0.000000
0.000000
0.000000
0.000000
0.000000
0.000000
0.000000
0.000000
0.125000
0.000000
0.000000
0.000000
0.000000
0.000000
0.000000
0.000000
0.000000
0.000000
0.000000
0.000000
0.000000
0.000000
0.000000
0.000000
0.000000
0.000000
0.000000
0.000000
0.000000
0.000000
0.000000
0.000000
0.000000
0.000000
0.000000
0.000000
0.000000
0.000000
0.125000
0.000000
0.000000
0.000000
0.000000
0.000000
0.000000
0.000000
0.000000
0.000000
0.000000
0.000000
0.000000
0.000000
0.000000
0.000000
0.000000
0.000000
0.000000
0.000000
0.000000
0.000000
0.000000
0.000000
0.000000
0.000000
0.000000
0.000000
0.000000
0.000000
0.125000
0.000000
0.000000
0.000000
0.000000
0.000000
0.000000
0.000000
0.000000
0.000000
0.000000
0.000000
0.000000
0.000000
0.000000
0.000000
0.000000
0.000000
0.000000
0.000000
0.000000
0.000000
0.000000
0.000000
0.000000
0.000000
0.000000
0.000000
0.000000
0.000000
0.125000
0.000000
0.000000
0.000000
0.000000
0.000000
0.000000
0.000000
0.000000
0.000000
0.000000
0.000000
0.000000
0.000000
0.000000
0.000000
0.000000
0.000000
0.000000
0.000000
0.000000
0.000000
0.000000
0.000000
0.000000
0.000000
0.000000
0.000000
0.000000
0.000000
0.125000
0.000000
0.000000
0.000000
0.000000
0.000000
0.000000
0.000000
0.000000
0.000000
0.000000
0.000000
0.000000
0.000000
0.000000
0.000000
0.000000
0.000000
0.000000
0.000000
0.000000
0.000000
0.000000
0.000000
0.000000
0.000000
0.000000
0.000000
0.000000
0.000000
0.125000
0.000000
0.000000
0.000000
0.000000
0.000000
0.000000
0.000000
0.000000
0.000000
0.000000
0.000000
0.000000
0.000000
0.000000
0.000000
0.000000
0.000000
0.000000
0.000000
0.000000
0.000000
0.000000
0.000000
0.000000
0.000000
0.000000
0.000000
0.000000
0.000000
0.125000
0.000000
0.000000
0.000000
0.000000
0.000000
0.000000
0.000000
0.000000
0.000000
0.000000
0.000000
0.000000
0.000000
0.000000
0.000000
0.000000
0.000000
0.000000
0.000000
0.000000
0.000000
0.000000
0.000000
0.000000
0.000000
0.000000
0.000000
0.000000
0.000000
0.125000
0.000000
0.000000
0.000000
0.000000
0.000000
0.000000
0.000000
0.000000
0.000000
0.000000
0.000000
0.000000
0.000000
0.000000
0.000000
0.000000
0.000000
0.000000
0.000000
0.000000
0.000000
0.000000
0.000000
0.000000
0.000000
0.000000
0.000000
0.000000
0.000000
0.125000
0.000000
0.000000
0.000000
0.000000
0.000000
0.000000
0.000000
0.000000
0.000000
0.000000
0.000000
0.000000
0.000000
0.000000
0.000000
0.000000
0.000000
0.000000
0.000000
0.000000
0.000000
0.000000
0.000000
0.000000
0.000000
0.000000
0.000000
0.000000
0.000000
0.125000
0.000000
0.000000
0.000000
0.000000
0.000000
0.000000
0.000000
0.000000
0.000000
0.000000
0.000000
0.000000
0.000000
0.000000
0.000000
0.000000
0.000000
0.000000
0.000000
0.000000
0.000000
0.000000
0.000000
0.000000
0.000000
0.000000
0.000000
0.000000
0.000000
0.125000
0.063917
0.041880
0.035062
0.034577
0.033828
0.032890
0.032084
0.031363
0.030698
0.029904
0.029141
0.028323
0.027659
0.025182
0.020940
0.020583
0.019150
0.018898
0.018580
0.018084
0.017534
0.016963
0.016400
0.015809
0.015194
0.014574
0.013945
0.013446
0.000000
0.125000
0.065795
0.048627
0.041859
0.040201
0.039078
0.037913
0.037098
0.036248
0.035599
0.034974
0.034413
0.033818
0.033037
0.030549
0.024754
0.024079
0.022604
0.022243
0.021964
0.021606
0.021157
0.020677
0.020109
0.019518
0.018850
0.018137
0.017388
0.016762
0.000000
0.125000
0.066061
0.050270
0.042206
0.039900
0.039050
0.038033
0.037057
0.036320
0.035755
0.035244
0.034819
0.034299
0.033540
0.031309
0.026525
0.025167
0.023223
0.022466
0.022325
0.022091
0.021781
0.021352
0.020851
0.020281
0.019653
0.018964
0.018229
0.017605
0.000000
0.125000
0.065681
0.049547
0.041852
0.040412
0.039645
0.038452
0.037600
0.036864
0.036385
0.035851
0.035426
0.034895
0.034207
0.032461
0.028427
0.027007
0.024487
0.023265
0.023089
0.022868
0.022592
0.022210
0.021751
0.021211
0.020615
0.019964
0.019265
0.018645
0.000000
0.125000
0.065435
0.048851
0.041560
0.040455
0.039825
0.038852
0.038057
0.037346
0.036839
0.036297
0.035856
0.035283
0.034672
0.033378
0.029876
0.028620
0.025586
0.023990
0.023712
0.023451
0.023153
0.022746
0.022278
0.021752
0.021168
0.020537
0.019864
0.019250
0.000000
0.125000
0.065375
0.048582
0.041403
0.040382
0.040065
0.039279
0.038515
0.037823
0.037289
0.036749
0.036297
0.035693
0.035125
0.034159
0.030993
0.029830
0.026560
0.024691
0.024338
0.024059
0.023723
0.023282
0.022790
0.022250
0.021678
0.021054
0.020390
0.019774
0.000000
0.125000
0.065303
0.048406
0.041192
0.040230
0.039966
0.039234
0.038564
0.037872
0.037386
0.036824
0.036390
0.035826
0.035274
0.034528
0.031663
0.030594
0.027120
0.025130
0.024741
0.024428
0.024075
0.023596
0.023095
0.022545
0.021966
0.021357
0.020692
0.020073
0.000000
0.125000
0.065270
0.048437
0.041223
0.040267
0.040011
0.039296
0.038645
0.038029
0.037529
0.036993
0.036572
0.036009
0.035463
0.034807
0.032096
0.031081
0.027560
0.025520
0.025119
0.024803
0.024437
0.023946
0.023427
0.022873
0.022287
0.021679
0.021011
0.020393
0.000000
0.125000
0.065200
0.048414
0.041228
0.040205
0.039885
0.039136
0.038525
0.037937
0.037488
0.036977
0.036571
0.036026
0.035494
0.034849
0.032329
0.031237
0.027753
0.025742
0.025357
0.025031
0.024670
0.024182
0.023670
0.023100
0.022509
0.021897
0.021222
0.020591
0.000000
0.125000
0.065115
0.048486
0.041246
0.040162
0.039734
0.038875
0.038225
0.037626
0.037214
0.036718
0.036333
0.035863
0.035243
0.034600
0.032219
0.031020
0.027686
0.025759
0.025420
0.025071
0.024691
0.024206
0.023676
0.023115
0.022507
0.021885
0.021220
0.020587
0.000000
0.125000
0.065058
0.048536
0.041152
0.039869
0.039304
0.038311
0.037643
0.036976
0.036613
0.036160
0.035859
0.035470
0.034749
0.034193
0.031750
0.030440
0.027594
0.025708
0.025317
0.024932
0.024495
0.023998
0.023454
0.022892
0.022297
0.021676
0.021006
0.020374
0.000000
0.125000
0.064898
0.048173
0.040657
0.038921
0.038084
0.036960
0.036166
0.035481
0.035062
0.034647
0.034432
0.034079
0.033404
0.033100
0.030617
0.029356
0.026889
0.025133
0.024423
0.023916
0.023415
0.022888
0.022344
0.021774
0.021202
0.020593
0.019917
0.019282
0.000000
0.125000
0.064643
0.047325
0.039567
0.037424
0.036387
0.035115
0.034287
0.033496
0.033053
0.032662
0.032475
0.032154
0.031816
0.031670
0.029433
0.028827
0.026196
0.024456
0.023361
0.022604
0.022003
0.021463
0.020902
0.020380
0.019819
0.019240
0.018589
0.017961
0.000000
0.125000
0.063316
0.045214
0.036889
0.033529
0.031836
0.030426
0.029593
0.028835
0.028338
0.027769
0.027375
0.026809
0.026548
0.026312
0.025852
0.025738
0.022204
0.020558
0.019494
0.018640
0.017973
0.017418
0.016882
0.016355
0.015810
0.015266
0.014672
0.014113
0.000000
0.125000
0.047311
0.027952
0.019844
0.015938
0.013490
0.011501
0.010340
0.009571
0.009133
0.008774
0.008609
0.008499
0.008421
0.009318
0.011747
0.014126
0.011024
0.009247
0.007921
0.006934
0.006239
0.005768
0.005467
0.005240
0.005039
0.004872
0.004680
0.004455
0.000000
0.125000
0.065047
0.047104
0.035995
0.033423
0.032245
0.031121
0.030384
0.029678
0.029067
0.028282
0.027583
0.026776
0.026221
0.024007
0.022667
0.022770
0.020230
0.019359
0.018890
0.018348
0.017784
0.017166
0.016589
0.016007
0.015398
0.014796
0.014178
0.013660
0.000000
0.125000
0.065489
0.051959
0.044475
0.042260
0.041045
0.039715
0.038840
0.037972
0.037359
0.036658
0.036131
0.035516
0.034600
0.032842
0.028634
0.028087
0.026119
0.025389
0.024986
0.024505
0.023941
0.023400
0.022760
0.022111
0.021387
0.020634
0.019856
0.019161
0.000000
0.125000
0.064675
0.051683
0.044953
0.043055
0.042139
0.040960
0.040031
0.039123
0.038507
0.037903
0.037527
0.036987
0.035793
0.034093
0.030505
0.028951
0.026786
0.025894
0.025682
0.025443
0.025110
0.024610
0.024010
0.023345
0.022623
0.021875
0.021088
0.020381
0.000000
0.125000
0.064278
0.050484
0.044383
0.043455
0.042938
0.041868
0.040992
0.040157
0.039583
0.038985
0.038547
0.038001
0.036974
0.035563
0.032448
0.030762
0.027988
0.026608
0.026529
0.026444
0.026207
0.025794
0.025261
0.024639
0.023959
0.023238
0.022474
0.021782
0.000000
0.125000
0.064119
0.049548
0.043635
0.043087
0.042852
0.042039
0.041354
0.040573
0.040021
0.039393
0.038897
0.038314
0.037576
0.036521
0.033695
0.032166
0.028621
0.026888
0.026755
0.026674
0.026486
0.026129
0.025636
0.025053
0.024395
0.023695
0.022954
0.022272
0.000000
0.125000
0.064101
0.049157
0.043233
0.042802
0.042818
0.042221
0.041612
0.040930
0.040369
0.039736
0.039233
0.038639
0.038025
0.037276
0.034466
0.033093
0.029251
0.027253
0.027008
0.026917
0.026751
0.026398
0.025931
0.025366
0.024731
0.024051
0.023322
0.022634
0.000000
0.125000
0.064082
0.049013
0.043051
0.042658
0.042752
0.042189
0.041632
0.040924
0.040383
0.039738
0.039257
0.038685
0.038098
0.037520
0.034775
0.033499
0.029485
0.027360
0.027067
0.026970
0.026786
0.026424
0.025949
0.025396
0.024763
0.024099
0.023373
0.022689
0.000000
0.125000
0.064052
0.049055
0.043078
0.042663
0.042710
0.042087
0.041481
0.040789
0.040213
0.039586
0.039127
0.038574
0.037991
0.037446
0.034765
0.033474
0.029494
0.027370
0.027079
0.026965
0.026759
0.026375
0.025903
0.025329
0.024694
0.024026
0.023302
0.022616
0.000000
0.125000
0.064074
0.049395
0.043473
0.042939
0.042823
0.041995
0.041267
0.040541
0.039993
0.039366
0.038911
0.038374
0.037750
0.037078
0.034412
0.033042
0.029316
0.027342
0.027073
0.026947
0.026711
0.026308
0.025798
0.025224
0.024570
0.023884
0.023162
0.022477
0.000000
0.125000
0.064137
0.049945
0.043898
0.042943
0.042430
0.041409
0.040554
0.039726
0.039203
0.038625
0.038218
0.037735
0.037015
0.036158
0.033607
0.032128
0.028738
0.027012
0.026749
0.026527
0.026254
0.025807
0.025265
0.024659
0.023999
0.023300
0.022570
0.021891
0.000000
0.125000
0.064356
0.051149
0.044994
0.043121
0.041696
0.040384
0.039484
0.038655
0.038098
0.037575
0.037234
0.036786
0.035958
0.034987
0.032347
0.030702
0.028022
0.026590
0.026368
0.025953
0.025508
0.025009
0.024438
0.023801
0.023134
0.022439
0.021693
0.021009
0.000000
0.125000
0.064461
0.051808
0.043535
0.041195
0.039738
0.038211
0.037156
0.036377
0.035780
0.035298
0.034933
0.034586
0.033885
0.033081
0.030340
0.029083
0.027022
0.025070
0.024521
0.024062
0.023541
0.022911
0.022306
0.021675
0.021005
0.020313
0.019567
0.018881
0.000000
0.125000
0.065756
0.052262
0.041513
0.037526
0.036329
0.035006
0.034059
0.033038
0.032570
0.031941
0.031541
0.031181
0.030710
0.030131
0.027957
0.027751
0.026668
0.024194
0.022516
0.021613
0.020927
0.020331
0.019687
0.019109
0.018478
0.017815
0.017120
0.016479
0.000000
0.125000
0.045663
0.024642
0.021505
0.021251
0.019908
0.018997
0.018488
0.018144
0.017719
0.017277
0.016829
0.016398
0.016214
0.015784
0.014866
0.016679
0.012950
0.012191
0.011818
0.011196
0.010706
0.010309
0.010001
0.009650
0.009278
0.008920
0.008535
0.008189
0.000000
0.125000
0.000000
0.000000
0.000000
0.000000
0.000000
0.000000
0.000000
0.000000
0.000000
0.000000
0.000000
0.000000
0.000000
0.000000
0.000000
0.000000
0.000000
0.000000
0.000000
0.000000
0.000000
0.000000
0.000000
0.000000
0.000000
0.000000
0.000000
0.000000
0.000000
0.125000
0.065795
0.048624
0.041855
0.040215
0.039040
0.037945
0.036982
0.036188
0.035626
0.034899
0.034407
0.033845
0.033070
0.030523
0.024661
0.023970
0.022614
0.022222
0.021993
0.021590
0.021162
0.020644
0.020107
0.019515
0.018854
0.018126
0.017382
0.016750
0.000000
0.125000
0.076248
0.068551
0.060777
0.057037
0.054498
0.052719
0.051755
0.050640
0.049985
0.049408
0.049135
0.048745
0.047062
0.042591
0.027437
0.032489
0.031684
0.031668
0.031587
0.031302
0.030907
0.030422
0.029758
0.029001
0.028101
0.027086
0.026104
0.025349
0.000000
0.125000
0.079299
0.075750
0.068987
0.064770
0.061891
0.060014
0.058663
0.057625
0.056979
0.056490
0.056338
0.055711
0.053452
0.048014
0.027028
0.037249
0.036275
0.036390
0.036636
0.036559
0.036350
0.035906
0.035304
0.034490
0.033549
0.032499
0.031497
0.030765
0.000000
0.125000
0.078576
0.075147
0.070179
0.067234
0.064588
0.062430
0.061240
0.060182
0.059638
0.059067
0.058800
0.057994
0.055748
0.050771
0.026743
0.040454
0.038853
0.038813
0.039018
0.038936
0.038725
0.038307
0.037724
0.036928
0.036008
0.035017
0.034081
0.033375
0.000000
0.125000
0.078100
0.074501
0.070376
0.068136
0.065959
0.064156
0.063080
0.062024
0.061412
0.060743
0.060374
0.059446
0.057437
0.052978
0.026855
0.043113
0.041059
0.040823
0.040882
0.040712
0.040450
0.039995
0.039376
0.038594
0.037702
0.036764
0.035884
0.035204
0.000000
0.125000
0.077956
0.074050
0.069867
0.067857
0.066195
0.064747
0.063819
0.062777
0.062116
0.061455
0.061093
0.060177
0.058451
0.054464
0.027222
0.045026
0.042758
0.042336
0.042213
0.041923
0.041563
0.041047
0.040360
0.039556
0.038702
0.037795
0.036936
0.036261
0.000000
0.125000
0.077976
0.073882
0.069641
0.067757
0.066199
0.064856
0.064104
0.063048
0.062481
0.061789
0.061462
0.060573
0.059004
0.055281
0.027378
0.046242
0.043814
0.043371
0.043183
0.042793
0.042357
0.041781
0.041069
0.040257
0.039402
0.038526
0.037679
0.037005
0.000000
0.125000
0.077819
0.073589
0.069257
0.067350
0.065843
0.064554
0.063852
0.062931
0.062375
0.061757
0.061499
0.060714
0.059287
0.055779
0.027677
0.047009
0.044500
0.044036
0.043866
0.043494
0.043033
0.042427
0.041670
0.040851
0.039969
0.039081
0.038235
0.037560
0.000000
0.125000
0.077759
0.073602
0.069204
0.067191
0.065592
0.064244
0.063605
0.062755
0.062287
0.061711
0.061499
0.060736
0.059347
0.055855
0.027934
0.047293
0.044838
0.044465
0.044390
0.044058
0.043616
0.042997
0.042248
0.041419
0.040525
0.039631
0.038780
0.038104
0.000000
0.125000
0.077611
0.073397
0.068780
0.066474
0.064574
0.063001
0.062310
0.061481
0.061111
0.060623
0.060530
0.059933
0.058565
0.055235
0.027861
0.046863
0.044557
0.044345
0.044377
0.044022
0.043529
0.042910
0.042145
0.041330
0.040419
0.039515
0.038682
0.038000
0.000000
0.125000
0.077560
0.073126
0.067919
0.065044
0.062690
0.060808
0.060029
0.059086
0.058831
0.058492
0.058617
0.058172
0.056863
0.053813
0.027478
0.045707
0.043911
0.043706
0.043612
0.043120
0.042510
0.041848
0.041079
0.040264
0.039390
0.038498
0.037661
0.036986
0.000000
0.125000
0.077242
0.072092
0.066045
0.062144
0.059090
0.056908
0.055869
0.054937
0.054681
0.054525
0.054951
0.054790
0.053879
0.051356
0.026416
0.043929
0.042614
0.042253
0.041520
0.040706
0.039973
0.039289
0.038562
0.037765
0.036950
0.036100
0.035268
0.034591
0.000000
0.125000
0.075920
0.068375
0.060613
0.055679
0.052144
0.049710
0.048595
0.047529
0.047245
0.047142
0.047632
0.047780
0.047939
0.046638
0.025329
0.041457
0.039432
0.038110
0.036482
0.035312
0.034504
0.033852
0.033153